21
	Energy:       2.7991989
C         -1.72780        0.85526        0.08877
C         -0.40206        0.53672       -0.20527
O         -2.65529       -0.13123        0.24658
H         -2.24187       -1.00381        0.11835
C         -2.10839        2.18965        0.22219
C         -1.16581        3.20400        0.06246
C          0.16119        2.88833       -0.23094
C          0.53986        1.55212       -0.36487
H         -3.14143        2.44130        0.45069
H         -1.46950        4.24287        0.16738
C          1.15740        3.96184       -0.40071
H          1.57225        1.29898       -0.59452
H         -0.09716       -0.50149       -0.31143
C          1.91365        4.43524        0.60087
H          1.24408        4.35700       -1.41271
C          2.92457        5.54264        0.41637
H          1.81494        4.03189        1.60621
O          4.04054        5.06662       -0.33604
H          3.27032        5.89652        1.39155
H          2.46433        6.38149       -0.11333
H          4.47307        4.35349        0.16792
