# LAMMPS data file written by OVITO Basic 3.8.4

291 atoms
3 atom types

0.0 20.0 xlo xhi
0.0 20.0 ylo yhi
0.0 20.0 zlo zhi

Masses

1 12.0107  # C
2 15.9994  # O
3 1.00794  # H

Atoms  # full

1   1   1   0   7.378341   8.235324   6.361027
2   1   1   0   8.648717   8.578412   6.823574
3   1   2   0   6.990804   6.929188   6.314895
4   1   3   0   7.710630   6.354454   6.631575
5   1   1   0   6.498619   9.232562   5.942876
6   1   1   0   6.887469   10.570362   5.987201
7   1   1   0   8.157308   10.916581   6.450127
8   1   1   0   9.036593   9.916826   6.867420
9   1   3   0   5.507704   8.968245   5.581026
10   1   3   0   6.196512   11.343266   5.659048
11   1   1   0   8.568229   12.331763   6.495793
12   1   3   0   10.028232   10.179512   7.228388
13   1   3   0   9.340985   7.806650   7.151082
14   1   1   0   8.403466   13.116211   7.571283
15   1   3   0   9.024318   12.711010   5.581483
16   1   1   0   8.819970   14.568064   7.602599
17   1   3   0   7.945246   12.723996   8.476459
18   1   2   0   10.243909   14.668732   7.621799
19   1   3   0   8.411068   15.052896   8.493378
20   1   3   0   8.434142   15.084489   6.719132
21   1   3   0   10.573620   14.249738   8.437487
22   2   3   0   19.161361   10.045511   11.547435
23   2   3   0   18.095069   9.246472   10.603299
24   2   2   0   18.198881   9.969022   11.286865
25   2   3   0   11.356260   2.387190   7.382634
26   2   3   0   12.478496   3.573032   7.348005
27   2   2   0   12.289565   2.635960   7.641807
28   2   3   0   15.040676   18.424987   12.854558
29   2   3   0   14.227911   17.130866   13.430318
30   2   2   0   14.801531   17.911489   13.678722
31   2   3   0   14.586792   8.814633   7.112660
32   2   3   0   13.217135   7.926281   7.153958
33   2   2   0   13.599108   8.843604   7.266794
34   2   3   0   13.767934   11.410018   3.205001
35   2   3   0   12.279058   10.739467   3.226046
36   2   2   0   12.800955   11.562112   3.000223
37   2   3   0   17.428038   3.875907   10.554215
38   2   3   0   18.116778   3.533709   9.113600
39   2   2   0   17.562051   3.167752   9.860909
40   2   3   0   16.944983   14.724551   0.067180
41   2   3   0   18.528124   14.974395   0.380353
42   2   2   0   17.619463   15.392065   0.382800
43   2   3   0   0.978767   12.661222   16.673351
44   2   3   0   2.462065   12.104742   17.069577
45   2   2   0   1.526743   11.840288   16.834300
46   2   3   0   19.953138   5.570173   4.457570
47   2   3   0   18.695040   6.360435   3.779697
48   2   2   0   19.681796   6.382235   3.940806
49   2   3   0   12.929803   11.790409   7.564679
50   2   3   0   11.955091   13.055215   7.222571
51   2   2   0   12.626611   12.693400   7.869307
52   2   3   0   17.246017   15.452304   6.277553
53   2   3   0   16.384369   14.572962   5.204634
54   2   2   0   16.968397   15.376559   5.319792
55   2   3   0   15.566913   4.724064   16.663630
56   2   3   0   14.850356   6.174428   16.440411
57   2   2   0   15.614174   5.590178   16.165907
58   2   3   0   16.568491   17.141399   15.401654
59   2   3   0   17.864931   18.133709   15.364255
60   2   2   0   16.885086   18.077347   15.556202
61   2   3   0   8.744920   3.521892   11.951563
62   2   3   0   10.143024   4.362255   12.028575
63   2   2   0   9.262933   4.198870   12.474515
64   2   3   0   8.379386   4.671075   15.719073
65   2   3   0   9.254284   5.830562   14.972763
66   2   2   0   8.356575   5.599479   15.348047
67   2   3   0   2.818149   13.287019   3.620236
68   2   3   0   1.760141   12.043831   3.576193
69   2   2   0   1.849826   13.039836   3.583264
70   2   3   0   9.090631   0.153847   17.390728
71   2   3   0   9.953946   1.530019   17.557082
72   2   2   0   10.011124   0.534652   17.479021
73   2   3   0   0.874320   3.741048   3.537908
74   2   3   0   1.311662   3.109485   2.096833
75   2   2   0   1.396444   3.015872   3.088885
76   2   3   0   10.495047   12.000196   2.388981
77   2   3   0   9.970682   10.482016   2.683950
78   2   2   0   9.686686   11.417481   2.473309
79   2   3   0   9.473972   13.821869   18.080341
80   2   3   0   8.730715   14.466255   19.383863
81   2   2   0   8.627551   13.837910   18.612723
82   2   3   0   5.364784   1.969186   5.661148
83   2   3   0   4.215876   1.011970   6.317338
84   2   2   0   4.492259   1.509581   5.495076
85   2   3   0   16.672340   3.695006   5.141372
86   2   3   0   16.068467   2.314188   4.512471
87   2   2   0   16.414279   3.227237   4.295965
88   2   3   0   7.456497   2.415955   19.676418
89   2   3   0   7.485893   3.961196   19.148969
90   2   2   0   7.062791   3.327371   19.796556
91   2   3   0   10.455823   7.869257   1.968305
92   2   3   0   9.795333   6.439118   1.537849
93   2   2   0   10.119233   7.323283   1.201013
94   2   3   0   10.145716   7.588066   9.275243
95   2   3   0   11.454593   8.239844   10.002474
96   2   2   0   10.664284   7.640192   10.128757
97   2   3   0   3.744126   3.505608   7.889343
98   2   3   0   3.913068   5.018344   7.297798
99   2   2   0   3.584463   4.475967   8.071079
100   2   3   0   9.084734   16.898866   1.333766
101   2   3   0   7.992272   18.035297   0.907284
102   2   2   0   8.395600   17.155365   0.655961
103   2   3   0   7.873813   5.620033   11.307220
104   2   3   0   8.346710   7.182845   11.278556
105   2   2   0   7.560729   6.566540   11.228358
106   2   3   0   17.304887   7.861483   13.705863
107   2   3   0   16.245426   7.368300   14.846542
108   2   2   0   16.672430   8.164959   14.418616
109   2   3   0   13.804093   14.147676   3.222938
110   2   3   0   13.297141   14.405432   1.692122
111   2   2   0   13.020343   14.100776   2.603541
112   2   3   0   18.867409   7.731628   16.147179
113   2   3   0   17.453346   8.140488   16.854352
114   2   2   0   18.175513   7.449979   16.812063
115   2   3   0   0.395192   19.820516   17.017592
116   2   3   0   1.796740   19.597511   16.209651
117   2   2   0   1.084860   19.147861   16.749244
118   2   3   0   7.820435   9.192228   10.424860
119   2   3   0   6.221434   8.969350   10.670538
120   2   2   0   6.905970   9.368467   10.060429
121   2   3   0   11.635601   11.229229   16.673445
122   2   3   0   11.712731   10.114692   17.864535
123   2   2   0   12.145647   10.444341   17.025468
124   2   3   0   9.577144   16.517500   14.064177
125   2   3   0   10.364649   15.087760   14.114335
126   2   2   0   10.472755   16.076180   14.007305
127   2   3   0   9.210036   4.464608   17.810842
128   2   3   0   10.449444   3.598916   18.428323
129   2   2   0   10.076983   4.518982   18.306385
130   2   3   0   2.277081   11.688907   10.171226
131   2   3   0   1.119441   10.537083   10.169084
132   2   2   0   1.632003   11.178528   10.740000
133   2   3   0   10.738803   18.967240   16.121844
134   2   3   0   9.831678   19.832508   15.075292
135   2   2   0   10.596376   19.193377   15.158157
136   2   3   0   15.220311   10.757256   12.810562
137   2   3   0   15.553708   9.163868   12.680959
138   2   2   0   15.947842   10.082982   12.683400
139   2   3   0   0.958555   9.813798   6.673733
140   2   3   0   0.041453   10.822018   7.573317
141   2   2   0   0.705066   10.768970   6.827045
142   2   3   0   10.935780   9.940690   12.224456
143   2   3   0   9.818807   8.752080   12.144366
144   2   2   0   9.957023   9.742151   12.172185
145   2   3   0   4.285411   3.634284   12.214539
146   2   3   0   2.660126   3.492792   12.141978
147   2   2   0   3.528864   3.035468   11.951536
148   2   3   0   6.913917   0.114658   4.918799
149   2   3   0   7.812473   1.383781   5.417560
150   2   2   0   7.496732   0.870257   4.619612
151   2   3   0   7.601362   4.332132   7.542239
152   2   3   0   6.624459   4.013496   8.811477
153   2   2   0   7.519350   4.366596   8.538332
154   2   3   0   1.848793   10.768409   13.687253
155   2   3   0   0.803875   9.516350   13.772886
156   2   2   0   1.109530   10.356850   14.220383
157   2   3   0   4.105813   13.245355   10.663148
158   2   3   0   5.671056   13.574964   10.992098
159   2   2   0   4.984611   13.512407   10.267531
160   2   3   0   0.635617   12.334310   1.627051
161   2   3   0   0.451525   12.286088   0.005132
162   2   2   0   1.078401   12.517309   0.749230
163   2   3   0   1.207458   13.973136   18.424523
164   2   3   0   2.163605   13.433339   19.633340
165   2   2   0   1.886149   14.238675   19.109347
166   2   3   0   2.205070   6.758093   9.086431
167   2   3   0   0.910528   6.350296   8.178302
168   2   2   0   1.637269   5.998718   8.768522
169   2   3   0   14.657436   12.382991   1.026528
170   2   3   0   16.024913   11.492657   1.090936
171   2   2   0   15.031833   11.473451   1.207304
172   2   3   0   7.378471   16.718255   16.243271
173   2   3   0   5.877141   17.009671   15.670626
174   2   2   0   6.653830   17.402766   16.162916
175   2   3   0   15.822982   14.906035   10.463788
176   2   3   0   14.723939   13.746818   10.124444
177   2   2   0   14.963624   14.708643   9.991923
178   2   3   0   11.449655   16.453058   3.803492
179   2   3   0   11.206079   14.844286   3.942635
180   2   2   0   11.894522   15.557419   3.809946
181   2   3   0   0.549048   15.610812   7.711462
182   2   3   0   1.457109   15.509863   9.065002
183   2   2   0   0.601262   15.855201   8.679792
184   2   3   0   8.698160   14.861893   2.224906
185   2   3   0   8.195915   13.308154   2.202987
186   2   2   0   7.913731   14.255422   2.355214
187   2   3   0   14.079423   7.702079   10.823453
188   2   3   0   14.455306   8.963378   9.856668
189   2   2   0   14.638851   8.526544   10.737353
190   2   3   0   18.011005   6.238313   1.685854
191   2   3   0   18.152780   6.336758   0.061956
192   2   2   0   18.185006   5.719970   0.848501
193   2   3   0   7.839446   12.427692   -0.013910
194   2   3   0   8.436167   11.080946   0.691096
195   2   2   0   7.704464   11.762037   0.720120
196   2   3   0   12.278130   3.088575   10.222153
197   2   3   0   12.925303   4.330830   9.382625
198   2   2   0   13.033714   3.367804   9.629499
199   2   3   0   6.768090   10.031927   19.630401
200   2   3   0   5.529590   8.983853   19.444674
201   2   2   0   5.776726   9.949306   19.527988
202   2   3   0   5.107201   4.228761   17.962619
203   2   3   0   4.505378   2.716991   18.101159
204   2   2   0   4.269545   3.684216   18.006423
205   2   3   0   5.431439   14.557477   4.174849
206   2   3   0   5.914383   12.999686   4.257833
207   2   2   0   5.122505   13.610438   4.263132
208   2   3   0   5.298779   2.953348   2.102340
209   2   3   0   3.990141   2.165049   2.679306
210   2   2   0   4.969620   2.322753   2.805278
211   2   3   0   4.076764   8.108224   3.549298
212   2   3   0   4.773949   9.578296   3.409091
213   2   2   0   4.947403   8.596822   3.491191
214   2   3   0   12.203004   15.062545   19.798894
215   2   3   0   12.609224   13.489123   19.960647
216   2   2   0   12.961401   14.424728   19.933578
217   2   3   0   2.703111   6.580131   2.356051
218   2   3   0   3.602982   5.218308   2.406120
219   2   2   0   3.634791   6.217543   2.380909
220   2   3   0   5.130563   5.641338   10.501812
221   2   3   0   4.877592   7.245621   10.331170
222   2   2   0   4.440527   6.346144   10.336839
223   2   3   0   5.453980   11.120405   13.244412
224   2   3   0   7.081037   10.982223   13.223731
225   2   2   0   6.315469   11.624168   13.179792
226   2   3   0   0.320942   2.270267   9.117872
227   2   3   0   1.867950   2.298801   9.640165
228   2   2   0   1.072178   2.860488   9.413506
229   2   3   0   15.576982   13.619490   16.970770
230   2   3   0   17.184372   13.877498   16.842063
231   2   2   0   16.289225   14.318620   16.907189
232   2   3   0   17.645696   12.781366   10.565814
233   2   3   0   16.449027   11.783361   10.077137
234   2   2   0   17.182316   11.913362   10.744599
235   2   3   0   10.955542   12.289276   9.485405
236   2   3   0   9.671957   13.018237   10.183876
237   2   2   0   10.591514   12.657828   10.340840
238   2   3   0   12.665405   2.263465   15.991786
239   2   3   0   13.287366   3.772978   16.028802
240   2   2   0   13.417057   2.828770   16.331736
241   2   3   0   9.039228   15.119400   16.205932
242   2   3   0   10.498614   15.852043   16.222110
243   2   2   0   9.510010   16.001710   16.202641
244   2   3   0   5.610477   7.566049   17.135043
245   2   3   0   4.983302   6.152336   16.610729
246   2   2   0   5.826913   6.630830   16.854618
247   2   3   0   15.276197   4.773696   10.852104
248   2   3   0   15.755238   3.882896   12.134224
249   2   2   0   15.149419   3.909412   11.338989
250   2   3   0   19.409996   1.774015   3.911978
251   2   3   0   18.431381   0.925807   4.906811
252   2   2   0   19.171837   0.859058   4.237940
253   2   3   0   1.362770   17.349423   18.087119
254   2   3   0   2.368701   17.517894   19.362484
255   2   2   0   2.144513   17.857439   18.448938
256   2   3   0   13.961109   4.454479   19.749715
257   2   3   0   12.767464   5.354441   19.092358
258   2   2   0   13.709676   5.367142   19.427312
259   2   3   0   15.951301   12.545057   19.169939
260   2   3   0   15.719890   14.161516   19.151366
261   2   2   0   15.264106   13.271606   19.172328
262   2   3   0   13.521595   14.824623   11.876937
263   2   3   0   12.731527   13.446633   12.256111
264   2   2   0   13.629513   13.852680   12.086213
265   2   3   0   3.612241   15.919652   2.713224
266   2   3   0   5.012486   15.694509   1.903619
267   2   2   0   4.474403   16.345718   2.438887
268   2   3   0   6.991614   1.934940   7.669823
269   2   3   0   8.387671   1.714083   8.487797
270   2   2   0   7.707386   1.275659   7.900332
271   2   3   0   2.224975   9.484715   16.786236
272   2   3   0   0.850792   8.610987   16.908940
273   2   2   0   1.251557   9.521352   17.012578
274   2   3   0   11.322628   19.976931   4.549404
275   2   3   0   12.633494   19.074533   4.183146
276   2   2   0   12.233072   19.989706   4.135829
277   2   3   0   2.675645   1.723429   13.790007
278   2   3   0   2.851337   0.856622   12.417195
279   2   2   0   2.678297   0.802275   13.400669
280   2   3   0   2.678465   16.254596   14.244857
281   2   3   0   3.068827   15.541301   15.661072
282   2   2   0   2.329237   15.960980   15.134770
283   2   3   0   13.061885   17.669865   10.551288
284   2   3   0   14.414616   18.575090   10.683671
285   2   2   0   13.415117   18.599089   10.660317
286   2   3   0   1.669756   3.458697   5.899121
287   2   3   0   1.073640   4.975868   5.997475
288   2   2   0   0.866059   4.032123   5.739843
289   2   3   0   10.929076   19.732402   1.227974
290   2   3   0   10.722369   18.671339   2.452005
291   2   2   0   10.804377   19.639656   2.215883

