# LAMMPS data file written by Ovito 3.10.6

616 atoms
4 atom types

0.0 13.0399999619 xlo xhi
0.0 25.8969993591 ylo yhi
0.0 20.8737449094 zlo zhi
0.0 -5.737831342 0.0 xy xz yz

Masses

1 58.6934  # Ni
2 14.0067  # N
3 12.0107  # C
4 1.00794  # H

Atoms  # full

1 1 1 0.0 8.252334637 12.394303773 4.992999699
2 1 1 0.0 -0.950166017 13.502694814 15.880745211
3 1 1 0.0 9.87320747 25.342804225 0.225436529
4 1 1 0.0 0.297876821 0.554195906 10.211435926
5 1 1 0.0 5.383418966 12.394303773 15.429872153
6 1 1 0.0 1.918749654 13.502694814 5.443872756
7 1 1 0.0 7.004291799 25.342804225 10.662308983
8 1 1 0.0 -2.57103885 0.554195906 20.648308381
9 1 2 0.0 9.840148345 13.098702503 3.98897268
10 1 2 0.0 -2.537979725 12.798296856 16.884772229
11 1 2 0.0 8.285393762 0.150202823 1.229463547
12 1 2 0.0 1.885690528 25.746796536 9.207408907
13 1 2 0.0 6.971232674 13.098702503 14.425845135
14 1 2 0.0 0.330935946 12.798296856 6.447899775
15 1 2 0.0 5.416478091 0.150202823 11.666336002
16 1 2 0.0 -0.983225143 25.746796536 19.644281362
17 1 2 0.0 8.603485143 10.703230031 4.185185782
18 1 2 0.0 -1.301316438 15.193768556 16.688558816
19 1 2 0.0 9.522056964 23.651730483 1.033250445
20 1 2 0.0 0.649027241 2.245269648 9.403622321
21 1 2 0.0 5.734569386 10.703230031 14.622058548
22 1 2 0.0 1.567599233 15.193768556 6.251686361
23 1 2 0.0 6.653141379 23.651730483 11.470122589
24 1 2 0.0 -2.21988843 2.245269648 19.840494775
25 1 2 0.0 6.712507769 11.705443507 6.007464078
26 1 2 0.0 0.589660851 14.191555081 14.866280832
27 1 2 0.0 5.675202997 24.653943958 20.084717059
28 1 2 0.0 -1.241950048 1.243056173 11.225900305
29 1 2 0.0 3.843592098 11.705443507 16.444336532
30 1 2 0.0 3.458576522 14.191555081 4.429408377
31 1 2 0.0 8.544118668 24.653943958 9.647844604
32 1 2 0.0 1.626965623 1.243056173 0.78902785
33 1 2 0.0 7.987561082 14.152710854 5.861347878
34 1 2 0.0 -0.685392633 11.744288505 15.012397653
35 1 2 0.0 4.400149513 1.204211174 20.230833881
36 1 2 0.0 0.033103436 24.692788185 11.079783483
37 1 2 0.0 5.118645582 14.152710854 16.298219711
38 1 2 0.0 2.183523209 11.744288505 4.575524577
39 1 2 0.0 7.269065355 1.204211174 9.793960804
40 1 2 0.0 2.902018936 24.692788185 0.642911651
41 1 2 0.0 7.152737075 9.576710399 20.278842751
42 1 2 0.0 0.149431545 16.320289732 0.594902158
43 1 2 0.0 5.234973691 22.525209307 5.813338385
44 1 2 0.0 4.9361106 3.371789281 4.623534069
45 1 2 0.0 10.021652746 9.576710399 9.841970297
46 1 2 0.0 -2.719484126 16.320289732 11.031774613
47 1 2 0.0 2.36605802 22.525209307 16.25021084
48 1 2 0.0 2.067194929 3.371789281 15.060406524
49 1 2 0.0 4.836148378 14.688778167 11.438811752
50 1 2 0.0 2.466020242 11.208221192 9.434933157
51 1 2 0.0 7.551562387 1.740278488 14.653369384
52 1 2 0.0 -3.118309439 24.156720871 16.65724798
53 1 2 0.0 7.705064049 14.688778167 1.001939298
54 1 2 0.0 -0.402895429 11.208221192 19.871805612
55 1 2 0.0 10.420478058 1.740278488 4.21649693
56 1 2 0.0 -0.249393768 24.156720871 6.220375525
57 1 3 0.0 10.241103055 14.422039575 3.953487335
58 1 3 0.0 -2.93893435 11.474959784 16.920257263
59 1 3 0.0 7.884439052 1.473539896 1.264948892
60 1 3 0.0 2.286645153 24.423459463 9.171923873
61 1 3 0.0 7.372187299 14.422039575 14.390360101
62 1 3 0.0 -0.070018679 11.474959784 6.483384809
63 1 3 0.0 5.015523466 1.473539896 11.701821036
64 1 3 0.0 -0.582270518 24.423459463 19.608796328
65 1 3 0.0 11.30095238 14.613676756 3.005819138
66 1 3 0.0 -3.99878376 11.283322603 17.867925772
67 1 3 0.0 6.824589727 1.665177076 2.21261709
68 1 3 0.0 3.346494564 24.231822283 8.224255365
69 1 3 0.0 8.432036709 14.613676756 13.442691592
70 1 3 0.0 -1.129868089 11.283322603 7.431053317
71 1 3 0.0 3.955674056 1.665177076 12.649489544
72 1 3 0.0 0.477578893 24.231822283 18.66112782
73 1 3 0.0 11.554456166 13.432773661 2.463101914
74 1 3 0.0 -4.252287376 12.464225698 18.410642373
75 1 3 0.0 6.571085941 0.484273982 2.755334313
76 1 3 0.0 3.59999835 25.412725377 7.681538142
77 1 3 0.0 8.685540324 13.432773661 12.899974991
78 1 3 0.0 -1.383371876 12.464225698 7.97377054
79 1 3 0.0 3.702170441 0.484273982 13.192206146
80 1 3 0.0 0.731082508 25.412725377 18.118411218
81 1 3 0.0 10.673049464 12.471994543 3.074702729
82 1 3 0.0 -3.370880845 13.425004816 17.799042181
83 1 3 0.0 7.452492643 25.420494223 2.143733499
84 1 3 0.0 2.718591648 0.476505136 8.293138956
85 1 3 0.0 7.804133793 12.471994543 13.511575183
86 1 3 0.0 -0.501965174 13.425004816 7.362169726
87 1 3 0.0 4.583576972 25.420494223 12.580605953
88 1 3 0.0 -0.150324023 0.476505136 18.730011411
89 1 3 0.0 10.592595977 11.125350935 2.745941124
90 1 3 0.0 -3.290427271 14.771648425 18.127803474
91 1 3 0.0 7.532946131 24.073850614 2.472495103
92 1 3 0.0 2.638138075 1.823148745 7.964377663
93 1 3 0.0 7.72368022 11.125350935 13.18281389
94 1 3 0.0 -0.4215116 14.771648425 7.690931019
95 1 3 0.0 4.664030545 24.073850614 12.909367247
96 1 3 0.0 -0.230777596 1.823148745 18.401250117
97 1 3 0.0 9.706937393 10.278518999 3.444168047
98 1 3 0.0 -2.404768688 15.61848036 17.429576551
99 1 3 0.0 8.418604714 23.227018678 1.77426818
100 1 3 0.0 1.752479491 2.669980681 8.662604585
101 1 3 0.0 6.838021636 10.278518999 13.881040813
102 1 3 0.0 0.464146983 15.61848036 6.992704097
103 1 3 0.0 5.549689129 23.227018678 12.211140324
104 1 3 0.0 -1.11643618 2.669980681 19.09947704
105 1 3 0.0 9.553851755 8.921516415 3.099751024
106 1 3 0.0 -2.251683306 16.975482944 17.773994507
107 1 3 0.0 8.571690352 21.870016095 2.118685203
108 1 3 0.0 1.599393939 4.026983265 8.318187252
109 1 3 0.0 6.684936255 8.921516415 13.536622857
110 1 3 0.0 0.617232536 16.975482944 7.33712143
111 1 3 0.0 5.70277451 21.870016095 12.55555828
112 1 3 0.0 -1.269521561 4.026983265 18.755059084
113 1 3 0.0 8.355471059 8.527881536 3.569410459
114 1 3 0.0 -1.053302439 17.369117823 17.30433445
115 1 3 0.0 9.770071049 21.476381215 1.649025768
116 1 3 0.0 0.401013242 4.420618144 8.787846686
117 1 3 0.0 5.486555388 8.527881536 14.006282914
118 1 3 0.0 1.815613232 17.369117823 6.867461996
119 1 3 0.0 6.901155378 21.476381215 12.085898223
120 1 3 0.0 -2.467902429 4.420618144 19.224719141
121 1 3 0.0 7.772053301 9.602607065 4.268680931
122 1 3 0.0 -0.469884596 16.294391523 16.605063667
123 1 3 0.0 10.353488806 22.551107516 0.949755296
124 1 3 0.0 -0.182404601 3.345892615 9.487117469
125 1 3 0.0 4.903137544 9.602607065 14.705553697
126 1 3 0.0 2.399031075 16.294391523 6.168191213
127 1 3 0.0 7.484573221 22.551107516 11.38662744
128 1 3 0.0 -3.051320272 3.345892615 19.923989924
129 1 3 0.0 6.58253676 9.509377832 5.009698666
130 1 3 0.0 0.719631945 16.387620755 15.864045932
131 1 3 0.0 11.543005347 22.457878284 0.208737561
132 1 3 0.0 -1.371921142 3.439121847 10.228135205
133 1 3 0.0 3.713621004 9.509377832 15.446571432
134 1 3 0.0 3.588547616 16.387620755 5.427173477
135 1 3 0.0 8.674089762 22.457878284 10.645609705
136 1 3 0.0 -4.240836813 3.439121847 20.665007659
137 1 3 0.0 6.213728725 10.43131118 5.929186987
138 1 3 0.0 1.088439895 15.465688951 14.944557923
139 1 3 0.0 6.17398204 23.379810088 20.16299415
140 1 3 0.0 -1.740729092 2.517188499 11.147623214
141 1 3 0.0 3.344813054 10.43131118 16.366059441
142 1 3 0.0 3.957355566 15.465688951 4.507685468
143 1 3 0.0 9.042897711 23.379810088 9.726121695
144 1 3 0.0 1.128186579 2.517188499 0.710750759
145 1 3 0.0 5.248262441 10.200828229 6.950957144
146 1 3 0.0 2.053906179 15.696170358 13.922787765
147 1 3 0.0 7.139448324 23.14932868 19.141223992
148 1 3 0.0 -2.706195376 2.74767145 12.169393372
149 1 3 0.0 2.37934677 10.200828229 17.387829599
150 1 3 0.0 4.92282185 15.696170358 3.48591531
151 1 3 0.0 10.008363995 23.14932868 8.704351538
152 1 3 0.0 0.162720295 2.74767145 1.732520917
153 1 3 0.0 5.167667286 11.311809399 7.671101403
154 1 3 0.0 2.134501333 14.58518996 13.202643506
155 1 3 0.0 7.220043479 24.260309079 18.421079733
156 1 3 0.0 -2.78679053 1.63669028 12.889537631
157 1 3 0.0 2.298751615 11.311809399 18.107973858
158 1 3 0.0 5.003417005 14.58518996 2.765771051
159 1 3 0.0 10.08895915 24.260309079 7.984207279
160 1 3 0.0 0.082125141 1.63669028 2.452665176
161 1 3 0.0 6.02471484 12.282946721 7.053238671
162 1 3 0.0 1.277453951 13.614051867 13.820505617
163 1 3 0.0 6.362996096 25.231447172 19.038941844
164 1 3 0.0 -1.929743148 0.665552959 12.27167552
165 1 3 0.0 3.155798998 12.282946721 17.490111747
166 1 3 0.0 4.146369451 13.614051867 3.383633784
167 1 3 0.0 9.231911596 25.231447172 8.602070011
168 1 3 0.0 0.939172695 0.665552959 1.834802443
169 1 3 0.0 6.267853447 13.56743725 7.530203262
170 1 3 0.0 1.034315001 12.329562109 13.343542269
171 1 3 0.0 6.119857147 0.618937571 18.561978497
172 1 3 0.0 -1.686604198 25.278061788 12.748638867
173 1 3 0.0 3.398937947 13.56743725 17.967075095
174 1 3 0.0 3.903230843 12.329562109 2.906669193
175 1 3 0.0 8.988772989 0.618937571 8.12510542
176 1 3 0.0 1.182311302 25.278061788 2.311767035
177 1 3 0.0 7.12474437 14.466064062 6.90816571
178 1 3 0.0 0.17742442 11.430935297 13.965578578
179 1 3 0.0 5.262966566 1.517564382 19.184014805
180 1 3 0.0 -0.829713617 24.379434977 12.126602559
181 1 3 0.0 4.255828528 14.466064062 17.345038786
182 1 3 0.0 3.046339921 11.430935297 3.528706745
183 1 3 0.0 8.131882066 1.517564382 8.747142972
184 1 3 0.0 2.039202225 24.379434977 1.689729482
185 1 3 0.0 7.412636245 15.79198972 7.378869005
186 1 3 0.0 -0.110467625 10.105009639 13.494875905
187 1 3 0.0 4.97507452 2.843490041 18.713312132
188 1 3 0.0 -0.541821571 23.053509319 12.597305232
189 1 3 0.0 4.543720574 15.79198972 17.815741459
190 1 3 0.0 2.758448046 10.105009639 3.05800345
191 1 3 0.0 7.843990191 2.843490041 8.276439677
192 1 3 0.0 2.3270941 23.053509319 2.160432777
193 1 3 0.0 8.363782738 16.320289732 6.575229597
194 1 3 0.0 -1.061614118 9.576709627 14.298515313
195 1 3 0.0 4.023928027 3.371790053 19.51695154
196 1 3 0.0 0.409324922 22.525209307 11.793665824
197 1 3 0.0 5.494867067 16.320289732 17.012102051
198 1 3 0.0 1.807301553 9.576709627 3.861642858
199 1 3 0.0 6.892843698 3.371790053 9.080079085
200 1 3 0.0 3.278240593 22.525209307 1.356793369
201 1 3 0.0 8.733607359 15.305127152 5.656784826
202 1 3 0.0 -1.431438568 10.591872207 15.216959462
203 1 3 0.0 3.654103577 2.356627473 20.435395689
204 1 3 0.0 0.779149372 23.540371886 10.875221675
205 1 3 0.0 5.864691517 15.305127152 16.093657902
206 1 3 0.0 1.437476932 10.591872207 4.780087629
207 1 3 0.0 6.523019077 2.356627473 9.998523856
208 1 3 0.0 3.648065214 23.540371886 0.438348598
209 1 3 0.0 9.716938207 15.442380871 4.70285471
210 1 3 0.0 -2.414769502 10.454618488 16.170889889
211 1 3 0.0 8.4086039 2.493881191 0.515581518
212 1 3 0.0 1.762480305 23.403118168 9.921291248
213 1 3 0.0 6.848022451 15.442380871 15.139727475
214 1 3 0.0 0.454146169 10.454618488 5.734017434
215 1 3 0.0 5.539688315 2.493881191 10.952453661
216 1 3 0.0 -1.106435366 23.403118168 20.358163703
217 1 3 0.0 11.390631073 10.591872979 1.588491972
218 1 3 0.0 -4.088462496 15.305125609 19.285253093
219 1 3 0.0 6.734910992 23.54037343 3.629944411
220 1 3 0.0 3.436173299 2.356626701 6.806928044
221 1 3 0.0 8.521715445 10.591872979 12.025364271
222 1 3 0.0 -1.219546825 15.305125609 8.848380638
223 1 3 0.0 3.865995321 23.54037343 14.066816866
224 1 3 0.0 0.567257628 2.356626701 17.243800498
225 1 3 0.0 -0.380526537 10.04285656 1.763831442
226 1 3 0.0 7.682695242 15.854143571 19.109913156
227 1 3 0.0 5.466068682 22.991355468 3.454604785
228 1 3 0.0 4.705015523 2.905643119 6.982267981
229 1 3 0.0 -3.249442293 10.04285656 12.200704208
230 1 3 0.0 10.551610913 15.854143571 8.673040701
231 1 3 0.0 2.597153097 22.991355468 13.891476929
232 1 3 0.0 1.836099852 2.905643119 17.419140435
233 1 3 0.0 0.311909225 9.550813733 0.667959869
234 1 3 0.0 6.990259416 16.346184854 20.205784963
235 1 3 0.0 4.773632942 22.499314184 4.550476281
236 1 3 0.0 5.397451349 3.397685947 5.886396174
237 1 3 0.0 -2.557006467 9.550813733 11.104832401
238 1 3 0.0 9.859175087 16.346184854 9.768912508
239 1 3 0.0 1.904717271 22.499314184 14.987348735
240 1 3 0.0 2.528535678 3.397685947 16.323268629
241 1 3 0.0 5.93819281 10.105008867 20.14316329
242 1 3 0.0 1.36397581 15.79198972 0.730581619
243 1 3 0.0 6.449517956 23.053509319 5.949017847
244 1 3 0.0 3.721566335 2.843490812 4.487854608
245 1 3 0.0 8.807108481 10.105008867 9.706290835
246 1 3 0.0 -1.504939861 15.79198972 11.167454074
247 1 3 0.0 3.580602285 23.053509319 16.385890301
248 1 3 0.0 0.852650664 2.843490812 14.924727063
249 1 3 0.0 10.88917951 10.62812862 0.281795564
250 1 3 0.0 -3.587011035 15.268869968 20.591949871
251 1 3 0.0 7.236362624 23.576629071 4.936640567
252 1 3 0.0 2.934721667 2.32037106 5.500231888
253 1 3 0.0 8.020263983 10.62812862 10.718667493
254 1 3 0.0 -0.718095193 15.268869968 10.155076794
255 1 3 0.0 4.367446782 23.576629071 15.373513643
256 1 3 0.0 0.065806167 2.32037106 15.937103721
257 1 3 0.0 5.665304517 8.344013201 4.821835203
258 1 3 0.0 1.636864103 17.552986158 16.051909706
259 1 3 0.0 12.46023759 21.29251288 0.396601024
260 1 3 0.0 -2.289153299 4.604486479 10.040271431
261 1 3 0.0 2.796388846 8.344013201 15.258707658
262 1 3 0.0 4.505779774 17.552986158 5.615037251
263 1 3 0.0 9.591321919 21.29251288 10.833473479
264 1 3 0.0 -5.15806897 4.604486479 20.477143885
265 1 3 0.0 5.390149446 7.463514982 5.865522076
266 1 3 0.0 1.912019345 18.433483605 15.008222212
267 1 3 0.0 6.997561491 20.412015433 20.226658439
268 1 3 0.0 -2.564308542 5.484984698 11.083958925
269 1 3 0.0 2.521233604 7.463514982 16.302395152
270 1 3 0.0 4.780934845 18.433483605 4.571350379
271 1 3 0.0 9.866476991 20.412015433 9.789786606
272 1 3 0.0 0.3046073 5.484984698 0.647085848
273 1 3 0.0 4.5347278 6.386200095 5.656784826
274 1 3 0.0 2.767440991 19.510798492 15.216959462
275 1 3 0.0 -5.187016826 19.334700546 20.435395689
276 1 3 0.0 9.620269775 6.562299585 10.875221675
277 1 3 0.0 1.665811958 6.386200095 16.093657902
278 1 3 0.0 5.636356491 19.510798492 4.780087629
279 1 3 0.0 -2.318101326 19.334700546 9.998523856
280 1 3 0.0 12.489185617 6.562299585 0.438348598
281 1 3 0.0 3.934379895 6.18161381 4.425233869
282 1 3 0.0 3.367789199 19.715384777 16.44851073
283 1 3 0.0 1.151162251 19.130114261 0.793202359
284 1 3 0.0 9.019921566 6.76688587 9.643670407
285 1 3 0.0 1.065464138 6.18161381 14.862106634
286 1 3 0.0 6.23670487 19.715384777 6.011638275
287 1 3 0.0 -1.717753335 19.130114261 11.230074502
288 1 3 0.0 6.151005895 6.76688587 20.080542862
289 1 3 0.0 4.195191392 7.059521899 3.381546685
290 1 3 0.0 3.106977228 18.83747746 17.492198224
291 1 3 0.0 0.890350754 20.008021579 1.836889542
292 1 3 0.0 9.280733537 5.88897778 8.599982913
293 1 3 0.0 1.326275721 7.059521899 13.81841914
294 1 3 0.0 5.975892899 18.83747746 7.055325769
295 1 3 0.0 -1.978564918 20.008021579 12.273761997
296 1 3 0.0 6.411817866 5.88897778 19.036855367
297 1 3 0.0 5.049309124 8.139426916 3.590284246
298 1 3 0.0 2.252859022 17.757572443 17.283460974
299 1 3 0.0 0.036233021 21.087926595 1.628151981
300 1 3 0.0 10.134851744 4.809072764 8.808720163
301 1 3 0.0 2.180393538 8.139426916 14.02715639
302 1 3 0.0 5.121774693 17.757572443 6.846588519
303 1 3 0.0 -2.832682735 21.087926595 12.065024747
304 1 3 0.0 7.265936073 4.809072764 19.245592617
305 1 3 0.0 3.606319129 6.891191255 2.108248309
306 1 3 0.0 3.695849922 19.005808104 18.765496445
307 1 3 0.0 1.479223059 19.839690935 3.110187763
308 1 3 0.0 8.691860844 6.057308424 7.326684692
309 1 3 0.0 0.737403416 6.891191255 12.545120919
310 1 3 0.0 6.564765593 19.005808104 8.32862399
311 1 3 0.0 -1.389692612 19.839690935 13.547060217
312 1 3 0.0 5.822945173 6.057308424 17.763557147
313 1 3 0.0 3.170012986 6.888601897 0.991502871
314 1 3 0.0 4.132155719 19.00839669 19.882241728
315 1 3 0.0 1.915529159 19.837102349 4.226933357
316 1 3 0.0 8.255555046 6.059897782 6.209939409
317 1 3 0.0 0.301097229 6.888601897 11.428375636
318 1 3 0.0 7.00107139 19.00839669 9.445369273
319 1 3 0.0 -0.953386426 19.837102349 14.6638055
320 1 3 0.0 5.386639375 6.059897782 16.646811864
321 1 3 0.0 5.737501252 13.955893414 8.871341835
322 1 3 0.0 1.564667368 11.941105945 12.002403074
323 1 3 0.0 6.650209514 1.007393734 17.220839301
324 1 3 0.0 -2.216956565 24.889605625 14.089778063
325 1 3 0.0 2.868585581 13.955893414 19.30821429
326 1 3 0.0 4.433583039 11.941105945 1.565530619
327 1 3 0.0 9.519125185 1.007393734 6.783966847
328 1 3 0.0 0.651959106 24.889605625 3.652905608
329 1 3 0.0 6.596825822 14.036173542 9.96721302
330 1 3 0.0 0.705342627 11.860825818 10.906532511
331 1 3 0.0 5.790884772 1.087673862 16.124968739
332 1 3 0.0 -1.357631823 24.809325497 15.185648625
333 1 3 0.0 3.727910322 14.036173542 20.404084853
334 1 3 0.0 3.574258469 11.860825818 0.469659435
335 1 3 0.0 8.659800614 1.087673862 5.688095662
336 1 3 0.0 1.511283677 24.809325497 4.748776793
337 1 3 0.0 6.114853372 14.398731495 11.198763666
338 1 3 0.0 1.187315248 11.498267864 9.674981243
339 1 3 0.0 6.272857393 1.450231816 14.893417471
340 1 3 0.0 -1.839604445 24.446767543 16.417199893
341 1 3 0.0 8.983769043 14.398731495 0.761891211
342 1 3 0.0 -1.681600423 11.498267864 20.111853698
343 1 3 0.0 9.141773064 1.450231816 4.456545016
344 1 3 0.0 1.029311226 24.446767543 5.980327439
345 1 3 0.0 4.010207101 14.60590791 10.363814044
346 1 3 0.0 3.29196169 11.291091449 10.509930243
347 1 3 0.0 8.377503836 1.657408231 15.728366471
348 1 3 0.0 -3.944250887 24.239591128 15.582250893
349 1 3 0.0 1.141291259 14.60590791 20.800687121
350 1 3 0.0 6.16087719 11.291091449 0.073058411
351 1 3 0.0 11.246419336 1.657408231 5.291494638
352 1 3 0.0 -1.075335045 24.239591128 5.145377817
353 1 3 0.0 4.402203127 14.243349956 9.080079085
354 1 3 0.0 2.899965493 11.653649403 11.793665824
355 1 3 0.0 7.985507638 1.294850277 17.012102051
356 1 3 0.0 -3.552254689 24.602149082 14.298515313
357 1 3 0.0 1.533287456 14.243349956 19.51695154
358 1 3 0.0 5.768881164 11.653649403 1.356793369
359 1 3 0.0 10.854423309 1.294850277 6.575229597
360 1 3 0.0 -0.683339018 24.602149082 3.861642858
361 1 3 0.0 10.274688385 16.763127814 4.41479713
362 1 3 0.0 -2.972519851 9.133871546 16.45894809
363 1 3 0.0 7.850853722 3.814628134 0.803639097
364 1 3 0.0 2.320230654 22.082371225 9.633233047
365 1 3 0.0 7.405772799 16.763127814 14.851669274
366 1 3 0.0 -0.10360418 9.133871546 6.022075635
367 1 3 0.0 4.981937966 3.814628134 11.240511863
368 1 3 0.0 -0.548685017 22.082371225 20.070105501
369 1 3 0.0 10.842439462 17.578882824 5.385425903
370 1 3 0.0 -3.540270672 8.318116535 15.488318384
371 1 3 0.0 1.545271474 4.630383145 20.706754612
372 1 3 0.0 2.887981475 21.266616215 10.603862752
373 1 3 0.0 7.97352362 17.578882824 15.82229898
374 1 3 0.0 -0.671355172 8.318116535 5.051446552
375 1 3 0.0 4.414186974 4.630383145 10.269882779
376 1 3 0.0 5.756897317 21.266616215 0.166989676
377 1 3 0.0 11.370302436 18.806400535 5.030572453
378 1 3 0.0 -4.068133816 7.090598825 15.843172456
379 1 3 0.0 6.755239672 5.857900855 0.187863774
380 1 3 0.0 3.415844619 20.039098504 10.249008681
381 1 3 0.0 8.501386765 18.806400535 15.467444908
382 1 3 0.0 -1.199218145 7.090598825 5.406300001
383 1 3 0.0 3.886324001 5.857900855 10.624736229
384 1 3 0.0 0.546928948 20.039098504 20.685881135
385 1 3 0.0 11.343455112 19.192266568 3.705089609
386 1 3 0.0 -4.041286406 6.704732791 17.168654989
387 1 3 0.0 6.782086996 6.243766889 1.513346618
388 1 3 0.0 3.38899721 19.65323247 8.923526148
389 1 3 0.0 8.474539355 19.192266568 14.141962375
390 1 3 0.0 -1.172370735 6.704732791 6.731782534
391 1 3 0.0 3.91317141 6.243766889 11.950218762
392 1 3 0.0 0.520081539 19.65323247 19.360398602
393 1 3 0.0 10.788743952 18.358382194 2.734460526
394 1 3 0.0 -3.486575417 7.538617165 18.139284695
395 1 3 0.0 7.336798155 5.409882514 2.483975701
396 1 3 0.0 2.834286221 20.487116845 7.952896442
397 1 3 0.0 7.919828366 18.358382194 13.17133267
398 1 3 0.0 -0.617659746 7.538617165 7.70241224
399 1 3 0.0 4.467882399 5.409882514 12.920848467
400 1 3 0.0 -0.03462945 20.487116845 18.389768897
401 1 3 0.0 10.267139975 17.148992304 3.099751024
402 1 3 0.0 -2.964971526 8.748007055 17.773994507
403 1 3 0.0 7.858402133 4.200492624 2.118685203
404 1 3 0.0 2.312682158 21.696506735 8.318187252
405 1 3 0.0 7.398224474 17.148992304 13.536622857
406 1 3 0.0 -0.096055684 8.748007055 7.33712143
407 1 3 0.0 4.989486291 4.200492624 12.55555828
408 1 3 0.0 -0.556233342 21.696506735 18.755059084
409 1 3 0.0 10.737120919 18.679505791 1.356793369
410 1 3 0.0 -3.434952299 7.217493568 19.51695154
411 1 3 0.0 7.388421188 5.731006111 3.861642858
412 1 3 0.0 2.782663103 20.165993248 6.575229597
413 1 3 0.0 7.868205248 18.679505791 11.793665824
414 1 3 0.0 -0.566036628 7.217493568 9.080079085
415 1 3 0.0 4.519505517 5.731006111 14.298515313
416 1 3 0.0 -0.086252568 20.165993248 17.012102051
417 1 3 0.0 10.549879794 18.83747746 0.187863696
418 1 3 0.0 -3.247711153 7.059521899 20.685881135
419 1 3 0.0 7.575662335 5.88897778 5.030572453
420 1 3 0.0 2.595421956 20.008021579 5.406300001
421 1 3 0.0 7.680964101 18.83747746 10.624736229
422 1 3 0.0 -0.378795482 7.059521899 10.249008681
423 1 3 0.0 4.706746664 5.88897778 15.467444908
424 1 3 0.0 -0.273493715 20.008021579 15.843172456
425 1 4 0.0 11.733621554 15.413894075 2.807518626
426 1 4 0.0 -4.431452763 10.483105284 18.066225662
427 1 4 0.0 6.391920553 2.465394396 2.410917602
428 1 4 0.0 3.779163737 23.431604963 8.025954853
429 1 4 0.0 8.864705712 15.413894075 13.244391702
430 1 4 0.0 -1.562537263 10.483105284 7.629353829
431 1 4 0.0 3.523005053 2.465394396 12.847789434
432 1 4 0.0 0.910247895 23.431604963 18.46282793
433 1 4 0.0 12.18872852 13.251493913 1.816015755
434 1 4 0.0 -4.886559815 12.645505446 19.057728843
435 1 4 0.0 5.936813587 0.302994233 3.402420472
436 1 4 0.0 4.234270618 25.594005126 7.034452293
437 1 4 0.0 9.319812763 13.251493913 12.252888521
438 1 4 0.0 -2.017644144 12.645505446 8.620856389
439 1 4 0.0 3.067898002 0.302994233 13.839292616
440 1 4 0.0 1.365354947 25.594005126 17.471324748
441 1 4 0.0 10.127617429 8.413935125 2.577907433
442 1 4 0.0 -2.825448852 17.483063462 18.295837632
443 1 4 0.0 7.997924635 21.362435576 2.64052895
444 1 4 0.0 2.173159656 4.534564554 7.796343505
445 1 4 0.0 7.258701801 8.413935125 13.014779732
446 1 4 0.0 0.043466819 17.483063462 7.858965177
447 1 4 0.0 5.129008964 21.362435576 13.077401405
448 1 4 0.0 -0.695756015 4.534564554 18.233215959
449 1 4 0.0 7.990090906 7.675870884 3.475478572
450 1 4 0.0 -0.687922457 18.221128475 17.398266959
451 1 4 0.0 10.135451201 20.624370564 1.742957655
452 1 4 0.0 0.03563309 5.272628795 8.6939148
453 1 4 0.0 5.121175406 7.675870884 13.912350405
454 1 4 0.0 2.180993385 18.221128475 6.961393882
455 1 4 0.0 7.266535359 20.624370564 12.179830732
456 1 4 0.0 -2.83328241 5.272628795 19.130786632
457 1 4 0.0 4.78794868 9.413559242 7.107510082
458 1 4 0.0 2.51421994 16.483440117 13.766234827
459 1 4 0.0 7.599762086 22.362058922 18.984671055
460 1 4 0.0 -3.166509137 3.534940437 12.325946309
461 1 4 0.0 1.919033009 9.413559242 17.544382537
462 1 4 0.0 5.383135611 16.483440117 3.329362373
463 1 4 0.0 10.468677757 22.362058922 8.5477986
464 1 4 0.0 -0.297593466 3.534940437 1.889073855
465 1 4 0.0 4.591551518 11.454242605 8.391245663
466 1 4 0.0 2.710617102 14.442757526 12.482499247
467 1 4 0.0 7.796159248 24.402741513 17.700935474
468 1 4 0.0 -3.362906299 1.494257074 13.60968189
469 1 4 0.0 1.722635847 11.454242605 18.828118117
470 1 4 0.0 5.579532773 14.442757526 2.045626792
471 1 4 0.0 10.665074919 24.402741513 7.264063019
472 1 4 0.0 -0.493990628 1.494257074 3.172809435
473 1 4 0.0 6.962488104 16.237417931 8.067702427
474 1 4 0.0 0.339680516 9.659581428 12.806042482
475 1 4 0.0 5.425222661 3.288918252 18.024478709
476 1 4 0.0 -0.991969712 22.608081107 13.286138655
477 1 4 0.0 4.093572433 16.237417931 18.504574882
478 1 4 0.0 3.208596187 9.659581428 2.369170027
479 1 4 0.0 8.294138332 3.288918252 7.587606255
480 1 4 0.0 1.876945959 22.608081107 2.8492662
481 1 4 0.0 8.711690034 17.180069229 6.637850647
482 1 4 0.0 -1.409521585 8.71693013 14.235894884
483 1 4 0.0 3.676020561 4.23156955 19.454331112
484 1 4 0.0 0.757232388 21.66542981 11.856286253
485 1 4 0.0 5.842774534 17.180069229 17.07472248
486 1 4 0.0 1.459394257 8.71693013 3.799021807
487 1 4 0.0 6.544936403 4.23156955 9.017458035
488 1 4 0.0 3.626147888 21.66542981 1.41941442
489 1 4 0.0 -0.015937537 9.993651814 2.619654852
490 1 4 0.0 7.318105986 15.903346773 18.25409068
491 1 4 0.0 5.101479683 22.942152266 2.598781376
492 1 4 0.0 5.069604608 2.954847865 7.838091079
493 1 4 0.0 -2.884853037 9.993651814 13.056526684
494 1 4 0.0 10.187021828 15.903346773 7.817217603
495 1 4 0.0 2.232563841 22.942152266 13.035654452
496 1 4 0.0 2.200689108 2.954847865 18.274962912
497 1 4 0.0 1.158463873 9.185665649 0.814076068
498 1 4 0.0 6.143704598 16.711334482 20.059669385
499 1 4 0.0 3.927078294 22.134164557 4.404360081
500 1 4 0.0 6.244005997 3.76283403 6.032512373
501 1 4 0.0 -1.710451649 9.185665649 11.250947979
502 1 4 0.0 9.01262044 16.711334482 9.622796309
503 1 4 0.0 1.058162452 22.134164557 14.841233158
504 1 4 0.0 3.375090497 3.76283403 16.469384206
505 1 4 0.0 5.589512436 10.136085792 19.276903454
506 1 4 0.0 1.712656184 15.760914338 1.596841456
507 1 4 0.0 6.798198329 23.0845847 6.815277683
508 1 4 0.0 3.372885961 2.812413887 3.621594772
509 1 4 0.0 8.458428107 10.136085792 8.840030999
510 1 4 0.0 -1.156259487 15.760914338 12.03371391
511 1 4 0.0 3.929282658 23.0845847 17.252150138
512 1 4 0.0 0.50397029 2.812413887 14.058467226
513 1 4 0.0 10.054099755 10.982917728 0.093931848
514 1 4 0.0 -2.751931296 14.914080859 20.779813645
515 1 4 0.0 8.071442363 23.93141818 5.12450434
516 1 4 0.0 2.099641928 1.965581951 5.312368114
517 1 4 0.0 7.185184245 10.982917728 10.53080372
518 1 4 0.0 0.116984546 14.914080859 10.342940568
519 1 4 0.0 5.20252652 23.93141818 15.561377417
520 1 4 0.0 -0.769273572 1.965581951 15.749239947
521 1 4 0.0 5.789424831 7.580051522 6.69003496
522 1 4 0.0 1.51274396 18.316947837 14.183709327
523 1 4 0.0 6.598286106 20.528551202 19.402145555
524 1 4 0.0 -2.165033157 5.368448157 11.908471809
525 1 4 0.0 2.920508989 7.580051522 17.126908037
526 1 4 0.0 4.38165946 18.316947837 3.746837495
527 1 4 0.0 9.467201606 20.528551202 8.965273722
528 1 4 0.0 0.703882685 5.368448157 1.471598732
529 1 4 0.0 4.368590413 5.798338292 6.356055609
530 1 4 0.0 2.933578425 20.098660682 14.517689923
531 1 4 0.0 -5.02087978 18.746838357 19.73612615
532 1 4 0.0 9.454132341 7.150161002 11.574491214
533 1 4 0.0 1.499674913 5.798338292 16.792927441
534 1 4 0.0 5.802494267 20.098660682 4.080816846
535 1 4 0.0 -2.151963938 18.746838357 9.299253073
536 1 4 0.0 12.323047841 7.150161002 1.137619381
537 1 4 0.0 3.36609794 5.459087646 4.310428194
538 1 4 0.0 3.936071068 20.437912099 16.563316715
539 1 4 0.0 1.719444205 18.407586939 0.908008033
540 1 4 0.0 8.451639697 7.48941242 9.528864422
541 1 4 0.0 0.497182269 5.459087646 14.747300649
542 1 4 0.0 6.804986739 20.437912099 6.12644426
543 1 4 0.0 -1.149471466 18.407586939 11.344880488
544 1 4 0.0 5.582724026 7.48941242 19.965736876
545 1 4 0.0 5.220923434 8.719519488 2.880576725
546 1 4 0.0 2.08124566 17.177480643 17.993167873
547 1 4 0.0 -0.135381289 21.668018396 2.337859502
548 1 4 0.0 10.306465106 4.228980192 8.099013264
549 1 4 0.0 2.352007678 8.719519488 13.317449491
550 1 4 0.0 4.950161331 17.177480643 7.556295418
551 1 4 0.0 -3.004296874 21.668018396 12.774731646
552 1 4 0.0 7.437549435 4.228980192 18.535885718
553 1 4 0.0 7.499194582 13.828997127 9.862844395
554 1 4 0.0 -0.197026133 12.068002232 11.010901136
555 1 4 0.0 4.888516012 0.880497447 16.229337364
556 1 4 0.0 -0.455263063 25.016501912 15.08128
557 1 4 0.0 4.630279082 13.828997127 20.299716228
558 1 4 0.0 2.671889709 12.068002232 0.57402806
559 1 4 0.0 7.757431854 0.880497447 5.792464287
560 1 4 0.0 2.413652437 25.016501912 4.644408168
561 1 4 0.0 6.712338035 14.450526371 11.918907925
562 1 4 0.0 0.589830585 11.446472988 8.954836984
563 1 4 0.0 5.67537273 1.502026691 14.173273211
564 1 4 0.0 -1.242119781 24.394972668 17.137344153
565 1 4 0.0 9.581253706 14.450526371 1.482035471
566 1 4 0.0 -2.279085086 11.446472988 19.391709439
567 1 4 0.0 8.544288401 1.502026691 3.736400757
568 1 4 0.0 1.62679589 24.394972668 6.700471698
569 1 4 0.0 3.109402098 14.813084325 10.509930243
570 1 4 0.0 4.192766133 11.083915034 10.363814666
571 1 4 0.0 -3.761691295 1.864584645 15.582250893
572 1 4 0.0 8.194944632 24.032414714 15.728366471
573 1 4 0.0 5.978317769 14.813084325 0.073057789
574 1 4 0.0 1.323850462 11.083915034 20.800687121
575 1 4 0.0 -0.892775624 1.864584645 5.145378439
576 1 4 0.0 11.063860303 24.032414714 5.291494016
577 1 4 0.0 3.785940874 14.21745329 8.380808302
578 1 4 0.0 3.516227745 11.679546069 12.492936607
579 1 4 0.0 -4.438230071 1.268953611 17.711372834
580 1 4 0.0 8.87148302 24.628045748 13.59924453
581 1 4 0.0 0.917025203 14.21745329 18.817680757
582 1 4 0.0 6.385143416 11.679546069 2.056064152
583 1 4 0.0 -1.5693144 1.268953611 7.27450038
584 1 4 0.0 11.740398691 24.628045748 3.162372075
585 1 4 0.0 10.859381271 17.306963973 6.27256046
586 1 4 0.0 -3.557212481 8.590035386 14.601183828
587 1 4 0.0 1.528329665 4.358464293 19.819620055
588 1 4 0.0 2.904923284 21.538535066 11.490997309
589 1 4 0.0 7.990465429 17.306963973 16.709433536
590 1 4 0.0 -0.688296981 8.590035386 4.164311995
591 1 4 0.0 4.397245165 4.358464293 9.382748222
592 1 4 0.0 5.773839126 21.538535066 1.054124232
593 1 4 0.0 -1.28684985 19.363185798 5.677658924
594 1 4 0.0 8.58901847 6.533813561 15.196085985
595 1 4 0.0 0.634560653 6.414686119 20.414522213
596 1 4 0.0 3.798692295 19.48231324 10.896095151
597 1 4 0.0 -4.155765521 19.363185798 16.114531379
598 1 4 0.0 11.457934141 6.533813561 4.759213531
599 1 4 0.0 3.503476324 6.414686119 9.977649758
600 1 4 0.0 6.667607966 19.48231324 0.459222697
601 1 4 0.0 11.706491237 20.020970684 3.475478572
602 1 4 0.0 -4.404322789 5.876028675 17.398266959
603 1 4 0.0 6.41905087 7.072471004 1.742957655
604 1 4 0.0 3.752033421 18.824528355 8.6939148
605 1 4 0.0 8.837575737 20.020970684 13.912350405
606 1 4 0.0 -1.535406947 5.876028675 6.961393882
607 1 4 0.0 3.550135028 7.072471004 12.179830732