LAMMPS (29 Oct 2020)
#Input example Generated by GS JUNG@ornl
units           metal
dimension       3
boundary        p p p
atom_style      full
atom_modify     sort 0 0.0    # turn off sorting of the coordinates
read_data       graphene.data
Reading data file ...
  orthogonal box = (0.0000000 0.0000000 -16.750000) to (7.3785364 8.5200000 16.750000)
  1 by 1 by 1 MPI processor grid
  reading atoms ...
  24 atoms
Finding 1-2 1-3 1-4 neighbors ...
  special bond factors lj:    0.0      0.0      0.0     
  special bond factors coul:  0.0      0.0      0.0     
     0 = max # of 1-2 neighbors
     0 = max # of 1-3 neighbors
     0 = max # of 1-4 neighbors
     1 = max # of special neighbors
  special bonds CPU = 0.000 seconds
  read_data CPU = 0.006 seconds

# initialize system

velocity	all create 300.0 87287 loop geom

pair_style      zero 1.0
pair_coeff	* *

neighbor        1.0 bin
neigh_modify    every 1 delay 0 check yes

variable	dt equal 0.001
timestep        ${dt}
timestep        0.001
dump		equil all xyz 10 equil.xyz
dump_modify     equil element C N

thermo      	10
thermo_style 	custom step temp ke pe press pxx pyy pzz xlo xhi ylo yhi
thermo_modify   norm no flush yes

fix             integ all nve
fix             2 all dftbp dftb_in.hsd NULL
fix_modify      2 energy yes
fix             therm   all langevin  10.0 10.0  0.1 699483

fix	        emin all box/relax x 0.0 y 0.0
min_style       cg
min_modify      dmax 0.2
min_modify      line quadratic
minimize        0.0 1.0e-8 1000 10000
Neighbor list info ...
  update every 1 steps, delay 0 steps, check yes
  max neighbors/atom: 2000, page size: 100000
  master list distance cutoff = 2
  ghost atom cutoff = 2
  binsize = 1, bins = 8 9 34
  1 neighbor lists, perpetual/occasional/extra = 1 0 0
  (1) pair zero, perpetual
      attributes: half, newton on
      pair build: half/bin/newton
      stencil: half/bin/3d/newton
      bin: standard
Per MPI rank memory allocation (min/avg/max) = 8.027 | 8.027 | 8.027 Mbytes
Step Temp KinEng PotEng Press Pxx Pyy Pzz Xlo Xhi Ylo Yhi 
       0          300     0.891895   -1428.6694    451.91672    367.34968     534.1549    454.24557            0    7.3785364            0         8.52 
      10          300     0.891895   -1428.7317    452.17282       367.56    534.45925    454.49921  0.001033996    7.3775024 0.0011837204    8.5188163 
      20          300     0.891895   -1428.7507    452.98497    368.25761    535.43625    455.26104 0.0041355699    7.3744009 0.0047319686     8.515268 
      30          300     0.891895   -1428.7663    453.75339      368.918    536.36075    455.98141 0.0070619846    7.3714745 0.0080779714     8.511922 
      40          300     0.891895   -1428.7792    454.49355     369.5544    537.25136    456.67488 0.0098735216    7.3686629  0.011290576    8.5087094 
      50          300     0.891895   -1428.7909    455.30981    370.25656    538.23368     457.4392  0.012966109    7.3655703   0.01482142    8.5051786 
      60          300     0.891895   -1428.7992    456.04754    370.89149    539.12157    458.12955  0.015754382    7.3627821  0.018001115    8.5019989 
      70          300     0.891895   -1428.8052    456.75889      371.504    539.97782    458.79484   0.01843723    7.3600992  0.021056607    8.4989434 
      80          300     0.891895   -1428.8087    457.35537    372.01785    540.69584    459.35242  0.020684236    7.3578522  0.023608772    8.4963912 
      90          300     0.891895   -1428.8106    457.90255    372.48946    541.35451    459.86368  0.022745172    7.3557913  0.025940064    8.4940599 
     100          300     0.891895   -1428.8113     458.2458    372.78542    541.76769    460.18429  0.024038828    7.3544976  0.027396487    8.4926035 
     110          300     0.891895   -1428.8115    458.52729    373.02831    542.10641    460.44714  0.025105784    7.3534307  0.028580983     8.491419 
     120          300     0.891895   -1428.8115     458.5438    373.04263    542.12622    460.46256  0.025172173    7.3533643  0.028646009     8.491354 
     130          300     0.891895   -1428.8115    458.54989    373.04792     542.1335    460.46824  0.025197813    7.3533386  0.028668592    8.4913314 
     140          300     0.891895   -1428.8115    458.55271    373.05038    542.13686    460.47087   0.02521023    7.3533262  0.028678441    8.4913216 
     150          300     0.891895   -1428.8115      458.555    373.05239    542.13959    460.47302  0.025220708    7.3533157  0.028686039     8.491314 
     160          300     0.891895   -1428.8115    458.55551    373.05284     542.1402    460.47349   0.02522315    7.3533133  0.028687591    8.4913124 
     170          300     0.891895   -1428.8115     458.5563    373.05354    542.14113    460.47423  0.025226963    7.3533095  0.028689947    8.4913101 
     180          300     0.891895   -1428.8115    458.55693     373.0541    542.14188    460.47482  0.025230138    7.3533063  0.028691725    8.4913083 
     190          300     0.891895   -1428.8115    458.55719    373.05432    542.14218    460.47506  0.025231453     7.353305  0.028692381    8.4913076 
     200          300     0.891895   -1428.8115    458.56701    373.06308    542.15372    460.48423  0.025283516    7.3532529  0.028716536    8.4912835 
     201          300     0.891895   -1428.8115    458.56701    373.06308    542.15372    460.48423  0.025283516    7.3532529  0.028716536    8.4912835 
Loop time of 106.39 on 1 procs for 201 steps with 24 atoms

128.5% CPU use with 1 MPI tasks x no OpenMP threads

Minimization stats:
  Stopping criterion = linesearch alpha is zero
  Energy initial, next-to-last, final = 
     -1428.66935850671  -1428.81149427386  -1428.81149427386
  Force two-norm initial, final = 2.1263771 0.00061954404
  Force max component initial, final = 1.1193935 0.00018154062
  Final line search alpha, max atom move = 7.4742309e-05 1.3568765e-08
  Iterations, force evaluations = 201 365

MPI task timing breakdown:
Section |  min time  |  avg time  |  max time  |%varavg| %total
---------------------------------------------------------------
Pair    | 0.00046744 | 0.00046744 | 0.00046744 |   0.0 |  0.00
Bond    | 2.9379e-05 | 2.9379e-05 | 2.9379e-05 |   0.0 |  0.00
Neigh   | 0          | 0          | 0          |   0.0 |  0.00
Comm    | 0.00057252 | 0.00057252 | 0.00057252 |   0.0 |  0.00
Output  | 0.019322   | 0.019322   | 0.019322   |   0.0 |  0.02
Modify  | 106.36     | 106.36     | 106.36     |   0.0 | 99.98
Other   |            | 0.005474   |            |       |  0.01

Nlocal:        24.0000 ave          24 max          24 min
Histogram: 1 0 0 0 0 0 0 0 0 0
Nghost:        30.0000 ave          30 max          30 min
Histogram: 1 0 0 0 0 0 0 0 0 0
Neighs:        36.0000 ave          36 max          36 min
Histogram: 1 0 0 0 0 0 0 0 0 0

Total # of neighbors = 36
Ave neighs/atom = 1.5000000
Ave special neighs/atom = 0.0000000
Neighbor list builds = 0
Dangerous builds = 0
unfix		emin

unfix           integ
fix             3 all npt temp 300 300 1.0 x 0 0 10 y 0 0 10
run             1000
Per MPI rank memory allocation (min/avg/max) = 6.902 | 6.902 | 6.902 Mbytes
Step Temp KinEng PotEng Press Pxx Pyy Pzz Xlo Xhi Ylo Yhi 
     201          300     0.891895   -1428.8115    458.56701    373.06308    542.15372    460.48423  0.025283516    7.3532529  0.028716536    8.4912835 
     210    108.24048   0.32179716   -1428.3011    165.46243    204.23317    182.04032    110.11379  0.025282848    7.3532536  0.028715386    8.4912846 
     220    113.89276   0.33860128   -1428.3616    174.09656    168.20084    147.43488    206.65394  0.025280815    7.3532556  0.028712381    8.4912876 
     230    96.077153   0.28563577   -1428.3805     146.8783    111.33035    146.71264     182.5919  0.025277294    7.3532591  0.028707488    8.4912925 
     240    73.756096   0.21927565   -1428.3784    112.73707    112.54843    128.53824    97.124548   0.02527242     7.353264  0.028700738    8.4912993 
     250    88.050185   0.26177173   -1428.4853    134.59193    80.298357    127.33242    196.14501  0.025266332    7.3532701  0.028692365    8.4913076 
     260    81.479024   0.24223578   -1428.5056    124.53611    129.89308    162.33365    81.381586  0.025259173    7.3532773  0.028682623    8.4913174 
     270    95.206432   0.28304713    -1428.579    145.52394    137.07374    134.01353    165.48454  0.025250878    7.3532856  0.028671516    8.4913285 
     280    69.728745    0.2073024   -1428.5473    106.57374    96.778542     162.3058    60.636881  0.025241587    7.3532949  0.028659281    8.4913407 
     290    66.355251   0.19727305   -1428.5746    101.43119    87.677601    100.80445    115.81152  0.025231425     7.353305  0.028645781    8.4913542 
     300    55.529517   0.16508833   -1428.5797    84.884224    73.657438    74.986558    106.00867  0.025220444     7.353316  0.028631187    8.4913688 
     310    59.952797   0.17823867    -1428.636    91.638834    96.899762    90.091379    87.925361  0.025208747    7.3533277  0.028615636    8.4913844 
     320    62.201343   0.18492356   -1428.6737    95.075851    108.52263    98.271157    78.433764  0.025196361    7.3533401   0.02859914    8.4914009 
     330    48.129252   0.14308746   -1428.6594    73.558972     76.95729    75.311644    68.407981  0.025183322    7.3533531  0.028581802    8.4914182 
     340    58.070735   0.17264333   -1428.7112    88.757171    92.370271    96.206399    77.694844  0.025169708    7.3533667  0.028563849    8.4914362 
     350    43.545057   0.12945873   -1428.7049    66.546884    83.796234    79.885393    35.959024  0.025155504    7.3533809  0.028545251    8.4914547 
     360    45.359213   0.13485218   -1428.7304    69.325514    69.719851     64.04679      74.2099  0.025140809    7.3533956  0.028526101    8.4914739 
     370    27.435947  0.081566612   -1428.6956    41.933743    38.278099    48.143105    39.380025  0.025125702    7.3534107   0.02850646    8.4914935 
     380    27.034568   0.08037332   -1428.7188    41.314873    29.688065    46.454795    47.801761  0.025110268    7.3534262  0.028486317    8.4915137 
     390    26.214978  0.077936694   -1428.7277    40.065323    27.780078    39.771433    52.644457  0.025094517    7.3534419  0.028465737    8.4915343 
     400    23.715101  0.070504601   -1428.7316    36.242615     29.95099    41.282347    37.494508   0.02507847     7.353458  0.028444812    8.4915552 
     410    25.501999  0.075817019    -1428.753    38.971861    26.879783    44.779814    45.255988  0.025062164    7.3534743  0.028423521    8.4915765 
     420    19.180611  0.057023636    -1428.737    29.310568    28.410022     34.35911    25.162572  0.025045612    7.3534908  0.028401861    8.4915981 
     430    27.978277  0.083178952   -1428.7674    42.754843    38.236219    51.020872    39.007438   0.02502881    7.3535076  0.028379902    8.4916201 
     440    19.423004  0.057744268   -1428.7499    29.680022    33.763362     34.78221    20.494495  0.025011769    7.3535247  0.028357575    8.4916424 
     450    17.867972  0.053121183   -1428.7505    27.303721    31.262554    23.111725    27.536885  0.024994494    7.3535419   0.02833494    8.4916651 
     460    18.587545  0.055260462   -1428.7609    28.401899    39.341768    20.039022    25.824909  0.024976983    7.3535595  0.028312061    8.4916879 
     470    18.002464  0.053521026   -1428.7653    27.507157    23.185849    37.409496    21.926126  0.024959232    7.3535772  0.028288943    8.4917111 
     480    17.189563  0.051104283   -1428.7657    26.264948    26.185223    29.366469    23.243153  0.024941301    7.3535951  0.028265538    8.4917345 
     490    15.368843  0.045691315   -1428.7678    23.479544    29.628386    27.668708    13.141539  0.024923192    7.3536132  0.028241884    8.4917581 
     500    16.699431  0.049647131   -1428.7735    25.514422    24.086734     26.79502    25.661512  0.024904877    7.3536316  0.028217987     8.491782 
     510    12.783909  0.038006349   -1428.7658    19.530054    23.479555    22.401298     12.70931  0.024886389    7.3536501  0.028193864    8.4918061 
     520    16.534986  0.049158239   -1428.7721    25.261105    29.295793    21.693878    24.793646  0.024867726    7.3536687  0.028169531    8.4918305 
     530    11.879847  0.035318586   -1428.7637    18.147015    15.954506    26.415521    12.071017  0.024848838    7.3536876  0.028145006     8.491855 
     540    11.620887  0.034548703   -1428.7608    17.749946    19.035139    20.491543    13.723156  0.024829755    7.3537067  0.028120273    8.4918797 
     550    16.475049  0.048980045   -1428.7806    25.167878     32.73945    29.032153    13.732032    0.0248105    7.3537259  0.028095332    8.4919047 
     560    13.011698  0.038683562   -1428.7754    19.875235     28.91764     22.64735    8.0607143  0.024791048    7.3537454  0.028070132    8.4919299 
     570     12.10106  0.035976249   -1428.7653    18.486033    19.094279    20.046257    16.317563  0.024771381    7.3537651  0.028044717    8.4919553 
     580    15.174529  0.045113622   -1428.7738    23.177484    25.487474    34.330032     9.714945  0.024751531    7.3537849  0.028019091    8.4919809 
     590    15.177464  0.045122347   -1428.7741    23.181674    21.163194    35.452371    12.929457  0.024731502    7.3538049   0.02799317    8.4920068 
     600    13.735821  0.040836366   -1428.7745     20.97849    23.242754    28.275639    11.417077  0.024711321    7.3538251  0.027966968     8.492033 
     610    13.463302  0.040026172   -1428.7733    20.562289     29.32613    16.528242    15.832496  0.024690984    7.3538455  0.027940511    8.4920595 
     620    12.583691  0.037411104   -1428.7733    19.216835     22.07511    19.664992    15.910403  0.024670481     7.353866  0.027913849    8.4920862 
     630    12.981739  0.038594494   -1428.7768    19.823691    20.942248    23.732479    14.796347  0.024649819    7.3538866  0.027887006     8.492113 
     640    14.449179  0.042957169   -1428.7777      22.0666    26.864483    24.087514    15.247804   0.02462898    7.3539075  0.027859976      8.49214 
     650    10.155846  0.030193161   -1428.7681     15.50278    16.656933     13.58848    16.262928  0.024607963    7.3539285  0.027832752    8.4921672 
     660    12.021293  0.035739103   -1428.7801    18.355284    12.618914    24.236967    18.209973  0.024586815    7.3539496  0.027805361    8.4921946 
     670      13.2795  0.039479731   -1428.7868    20.277094    20.358236    27.415037    13.058007  0.024565546    7.3539709  0.027777771    8.4922222 
     680    10.073907  0.029949558    -1428.781    15.377541    14.047481    21.760968    10.324175  0.024544152    7.3539923  0.027749984      8.49225 
     690    9.2979759  0.027642727   -1428.7757    14.190996    11.194245    18.430009    12.948734  0.024522638    7.3540138  0.027722017     8.492278 
     700    8.1457581  0.024217203    -1428.773    12.431051    14.506915    10.655227    12.131012  0.024500999    7.3540354  0.027693865    8.4923061 
     710    9.6924461  0.028815481   -1428.7789    14.793563    13.951909     15.03008    15.398698  0.024479238    7.3540572  0.027665555    8.4923344 
     720    11.458671  0.034066437   -1428.7819     17.49232    15.818513    20.252096    16.406351  0.024457345    7.3540791  0.027637083    8.4923629 
     730    11.913575   0.03541886   -1428.7825    18.183912    17.039818    22.747725    14.764192   0.02443531    7.3541011  0.027608439    8.4923916 
     740    11.305216  0.033610218   -1428.7794    17.255325    14.653834    21.428941      15.6832  0.024413147    7.3541233  0.027579624    8.4924204 
     750     14.56726   0.04330822   -1428.7848    22.236714    24.517426    21.468966    20.723752  0.024390861    7.3541456  0.027550637    8.4924494 
     760    12.233309  0.036369425   -1428.7764    18.667688    22.334507    17.734986    15.933571  0.024368431     7.354168  0.027521474    8.4924785 
     770    10.487344    0.0311787   -1428.7739    16.005371    11.475281    20.905592     15.63524  0.024345868    7.3541906  0.027492131    8.4925079 
     780    11.746718  0.034922798   -1428.7796    17.926239    17.428787    21.498324    14.851606  0.024323188    7.3542133  0.027462592    8.4925374 
     790    12.720126  0.037816721   -1428.7778    19.412581    16.136277    19.588537    22.512928  0.024300368    7.3542361  0.027432861    8.4925671 
     800    11.087798  0.032963838     -1428.78     16.91796    18.721441    18.221254    13.811186  0.024277415     7.354259  0.027402968     8.492597 
     810    13.352417  0.039696514   -1428.7895    20.378032    17.665492    21.801526    21.667078   0.02425432    7.3542821  0.027372913    8.4926271 
     820    9.3948722  0.027930798   -1428.7839    14.332711    13.780013    14.576804    14.641315  0.024231103    7.3543053  0.027342675    8.4926573 
     830    9.1764873  0.027281544   -1428.7859    13.996069    13.953155    16.616909    11.418143  0.024207792    7.3543286  0.027312292    8.4926877 
     840     8.341066   0.02479785   -1428.7867    12.718368    9.2804236      15.6173    13.257379  0.024184382    7.3543521  0.027281763    8.4927182 
     850    6.5240238  0.019395814   -1428.7821    9.9429217    6.5737697    10.713107    12.541888  0.024160881    7.3543756   0.02725111    8.4927489 
     860    7.7261467  0.022969705    -1428.784    11.778988    10.750551    10.295799    14.290613  0.024137297    7.3543991  0.027220332    8.4927797 
     870     7.738317  0.023005888   -1428.7823    11.796399    10.741156    11.318319    13.329723  0.024113614    7.3544228  0.027189422    8.4928106 
     880    10.640709   0.03163465   -1428.7886    16.227769    12.832439      17.4088    18.442068  0.024089841    7.3544466  0.027158391    8.4928416 
     890    10.035146  0.029834322   -1428.7829    15.302377    13.770661    18.746816    13.389652  0.024065969    7.3544705  0.027127223    8.4928728 
     900    11.912599  0.035415958    -1428.786    18.170704    19.435637     14.07033    21.006145   0.02404198    7.3544945  0.027095922    8.4929041 
     910    10.397746  0.030912325     -1428.78    15.855783    19.279331    8.3607884     19.92723  0.024017866    7.3545186  0.027064499    8.4929355 
     920    10.899803  0.032404933   -1428.7822    16.621099      15.7989     10.83148    23.232918  0.023993615    7.3545428   0.02703298     8.492967 
     930    10.625159  0.031588421   -1428.7835    16.201762    23.255757    11.136193    14.213336  0.023969223    7.3545672  0.027001362    8.4929986 
     940    10.346641  0.030760393   -1428.7815    15.773722    16.879669    10.004344    20.437153  0.023944681    7.3545918  0.026969651    8.4930303 
     950    13.050424  0.038798693   -1428.7874    19.906392    19.645355     11.55115     28.52267  0.023920007    7.3546164  0.026937853    8.4930621 
     960    9.2464573  0.027489564   -1428.7791     14.09319    16.872086    10.249536    15.157946  0.023895201    7.3546412  0.026905954     8.493094 
     970    12.657594  0.037630817    -1428.787    19.301328    20.176851    11.865455    25.861679  0.023870277    7.3546662  0.026873957     8.493126 
     980    8.0548195  0.023946844   -1428.7794    12.273432    13.608065    8.5855521    14.626681  0.023845225    7.3546912  0.026841848    8.4931582 
     990    9.3811326  0.027889951   -1428.7818    14.295502    14.910347    6.6450529    21.331107  0.023820072    7.3547164  0.026809627    8.4931904 
    1000    9.4844649  0.028197156    -1428.783    14.455615    19.821733    10.484728    13.060384  0.023794811    7.3547416  0.026777307    8.4932227 
    1010    7.8720164  0.023403374   -1428.7819    11.991072    10.318136    11.103524    14.551557  0.023769402     7.354767  0.026744878    8.4932551 
    1020    8.5344516  0.025372782   -1428.7828    13.004504     11.65455    13.136427    14.222534  0.023743876    7.3547926  0.026712328    8.4932877 
    1030    8.4030922  0.024982253   -1428.7841     12.80073    13.893344     13.82218    10.686666  0.023718252    7.3548182  0.026679648    8.4933204 
    1040    9.0787648  0.026991016   -1428.7846    13.833778     15.79582    13.520574     12.18494  0.023692522    7.3548439  0.026646821    8.4933532 
    1050    10.973713  0.032624667     -1428.79    16.727082    16.848381    20.800423    12.532441  0.023666676    7.3548698  0.026613848    8.4933862 
    1060    11.214632  0.033340913   -1428.7884     17.09308    17.519999    23.840036    9.9192045  0.023640708    7.3548957  0.026580719    8.4934193 
    1070    10.555856  0.031382384   -1428.7849    16.087424     15.61235    22.297598    10.352323  0.023614613    7.3549218  0.026547436    8.4934526 
    1080    10.268498  0.030528074   -1428.7858      15.6465    15.213916    19.061045     12.66454   0.02358839    7.3549481  0.026513996     8.493486 
    1090    8.4670579  0.025172422   -1428.7798    12.897639    9.5506744    16.590756    12.551488  0.023562038    7.3549744  0.026480392    8.4935196 
    1100    8.9274406  0.026541132   -1428.7813    13.597907    10.750063    17.703924    12.339735  0.023535569    7.3550009  0.026446628    8.4935534 
    1110    12.069273  0.035881748   -1428.7872    18.396823    21.738889    20.686205    12.765376  0.023508956    7.3550275  0.026412707    8.4935873 
    1120    8.1744802  0.024302593   -1428.7769    12.442795     22.40703    9.9584276    4.9629261  0.023482168    7.3550543  0.026378611    8.4936214 
    1130    9.5117542  0.028278287   -1428.7842    14.488259    16.289981    15.236178    11.938619  0.023455218    7.3550812  0.026344385    8.4936556 
    1140     9.271092  0.027562802   -1428.7867    14.118155     16.72084    17.322054    8.3115715  0.023428141    7.3551083  0.026310026      8.49369 
    1150    8.3527534  0.024832597   -1428.7842    12.714926     17.10647    10.588429    10.449877  0.023400945    7.3551355  0.026275527    8.4937245 
    1160    10.034801  0.029833297   -1428.7894    15.285491    18.846574    12.723576    14.286322  0.023373621    7.3551628  0.026240913    8.4937591 
    1170      8.28437  0.024629294   -1428.7877    12.610175    15.011138    13.737124    9.0822621  0.023346154    7.3551903  0.026206181    8.4937938 
    1180    8.5378849   0.02538299   -1428.7858    12.998907    21.797995    8.4859044    8.7128208  0.023318561    7.3552179  0.026171336    8.4938287 
    1190    9.9239041  0.029503601   -1428.7926    15.111307    17.263288    14.898487    13.172148  0.023290825    7.3552456  0.026136394    8.4938636 
    1200    9.0389048  0.026872513   -1428.7849    13.760256    12.328248    11.827034    17.125486  0.023262951    7.3552735  0.026101327    8.4938987 
    1201    9.3299577  0.027737809   -1428.7862    14.204699    13.330384    12.547044    16.736667  0.023260157    7.3552763  0.026097814    8.4939022 
Loop time of 364.644 on 1 procs for 1000 steps with 24 atoms

Performance: 0.237 ns/day, 101.290 hours/ns, 2.742 timesteps/s
126.3% CPU use with 1 MPI tasks x no OpenMP threads

MPI task timing breakdown:
Section |  min time  |  avg time  |  max time  |%varavg| %total
---------------------------------------------------------------
Pair    | 0.0011195  | 0.0011195  | 0.0011195  |   0.0 |  0.00
Bond    | 7.9257e-05 | 7.9257e-05 | 7.9257e-05 |   0.0 |  0.00
Neigh   | 0          | 0          | 0          |   0.0 |  0.00
Comm    | 0.0015733  | 0.0015733  | 0.0015733  |   0.0 |  0.00
Output  | 0.096915   | 0.096915   | 0.096915   |   0.0 |  0.03
Modify  | 364.54     | 364.54     | 364.54     |   0.0 | 99.97
Other   |            | 0.002026   |            |       |  0.00

Nlocal:        24.0000 ave          24 max          24 min
Histogram: 1 0 0 0 0 0 0 0 0 0
Nghost:        30.0000 ave          30 max          30 min
Histogram: 1 0 0 0 0 0 0 0 0 0
Neighs:        36.0000 ave          36 max          36 min
Histogram: 1 0 0 0 0 0 0 0 0 0

Total # of neighbors = 36
Ave neighs/atom = 1.5000000
Ave special neighs/atom = 0.0000000
Neighbor list builds = 0
Dangerous builds = 0
Total wall time: 0:07:51
