24
Atoms. Timestep: 0
C 0 0.71 0
C 1.22976 1.42 0
C 1.22976 2.84 0
C 0 3.55 0
C 0 4.97 0
C 1.22976 5.68 0
C 1.22976 7.1 0
C 0 7.81 0
C 2.45951 0.71 0
C 3.68927 1.42 0
C 3.68927 2.84 0
C 2.45951 3.55 0
C 2.45951 4.97 0
C 3.68927 5.68 0
C 3.68927 7.1 0
C 2.45951 7.81 0
C 4.91902 0.71 0
C 6.14878 1.42 0
C 6.14878 2.84 0
C 4.91902 3.55 0
C 4.91902 4.97 0
C 6.14878 5.68 0
C 6.14878 7.1 0
N 4.91902 7.81 0
24
Atoms. Timestep: 10
C 0.00471118 0.711956 -6.07307e-10
C 1.23045 1.42338 3.23456e-09
C 1.23045 2.84803 8.2933e-09
C -0.00357127 3.55129 -1.41956e-09
C -0.00353293 4.97638 -1.21827e-08
C 1.23045 5.67879 -9.58192e-09
C 1.23045 7.09695 -3.10097e-08
C -0.00721359 7.80939 -3.31172e-08
C 2.45618 0.711956 -6.06753e-10
C 3.69461 1.40741 -3.28451e-08
C 3.69282 2.83263 -1.34017e-08
C 2.46446 3.55129 -1.41937e-09
C 2.46442 4.97638 -1.21819e-08
C 3.69693 5.69151 -2.96205e-08
C 3.70903 7.11206 7.59298e-08
C 2.4681 7.80939 -3.31154e-08
C 4.91868 0.683969 7.95125e-08
C 6.14274 1.40741 -3.28438e-08
C 6.14454 2.83263 -1.34021e-08
C 4.91868 3.54807 -6.42329e-09
C 4.91868 4.96593 -2.20737e-09
C 6.14043 5.69151 -2.96237e-08
C 6.12833 7.11206 7.59336e-08
N 4.91868 7.80962 5.27055e-08
24
Atoms. Timestep: 20
C 0.00783245 0.714901 3.10849e-09
C 1.23251 1.42579 -9.44999e-09
C 1.23251 2.84922 -1.78889e-08
C -0.000499915 3.55188 -2.60461e-08
C -0.000462983 4.97579 -3.18993e-08
C 1.23251 5.67755 -2.90508e-08
C 1.23251 7.09453 -3.56933e-08
C -0.00408658 7.8064 -2.36303e-08
C 2.45719 0.714901 3.10919e-09
C 3.69462 1.40976 -2.29177e-08
C 3.69283 2.83377 -2.33126e-08
C 2.46553 3.55188 -2.60455e-08
C 2.46549 4.97579 -3.1898e-08
C 3.69693 5.69039 -2.50176e-08
C 3.70912 7.10979 1.02595e-07
C 2.46911 7.8064 -2.36283e-08
C 4.91765 0.686834 1.10791e-07
C 6.14067 1.40976 -2.29166e-08
C 6.14246 2.83377 -2.33134e-08
C 4.91765 3.54868 -1.59694e-08
C 4.91765 4.96536 -1.63843e-09
C 6.13837 5.69039 -2.50214e-08
C 6.12617 7.10979 1.02598e-07
N 4.91765 7.80668 9.3136e-08
24
Atoms. Timestep: 30
C 0.0107617 0.717691 6.20495e-09
C 1.23446 1.42805 -9.82316e-09
C 1.23446 2.85036 -2.35504e-08
C 0.00240841 3.55245 -3.19644e-08
C 0.00245032 4.97525 -3.5579e-08
C 1.23446 5.67646 -3.05685e-08
C 1.23446 7.09236 -3.22905e-08
C -0.0011655 7.8036 -1.93956e-08
C 2.45817 0.717691 6.2057e-09
C 3.69464 1.41197 -2.20749e-08
C 3.69282 2.83485 -2.66343e-08
C 2.46652 3.55245 -3.19637e-08
C 2.46648 4.97525 -3.55776e-08
C 3.69691 5.68928 -2.54404e-08
C 3.7092 7.10759 1.07297e-07
C 2.47009 7.8036 -1.93935e-08
C 4.91667 0.689519 1.1523e-07
C 6.1387 1.41197 -2.20738e-08
C 6.14052 2.83485 -2.66352e-08
C 4.91667 3.54922 -1.96699e-08
C 4.91667 4.96479 -3.24134e-09
C 6.13643 5.68928 -2.54443e-08
C 6.12414 7.10759 1.07301e-07
N 4.91667 7.80387 9.9081e-08
24
Atoms. Timestep: 40
C 0.0135611 0.720382 6.84105e-09
C 1.23634 1.43025 -9.86771e-09
C 1.23634 2.85146 -2.42875e-08
C 0.00520473 3.55299 -3.33385e-08
C 0.00522075 4.9747 -3.65919e-08
C 1.23634 5.67534 -3.1131e-08
C 1.23634 7.09022 -3.25112e-08
C 0.0016293 7.80092 -1.88515e-08
C 2.45912 0.720382 6.84181e-09
C 3.69466 1.41411 -2.23443e-08
C 3.69282 2.8359 -2.82079e-08
C 2.46747 3.55299 -3.33378e-08
C 2.46746 4.9747 -3.65905e-08
C 3.69693 5.68823 -2.58409e-08
C 3.70929 7.1055 1.1011e-07
C 2.47105 7.80092 -1.88493e-08
C 4.91573 0.692092 1.17957e-07
C 6.13681 1.41411 -2.23432e-08
C 6.13865 2.8359 -2.82088e-08
C 4.91573 3.54975 -2.16147e-08
C 4.91573 4.96424 -4.16462e-09
C 6.13453 5.68823 -2.58449e-08
C 6.12218 7.1055 1.10114e-07
N 4.91573 7.80117 1.02063e-07
24
Atoms. Timestep: 50
C 0.0166517 0.723316 7.1394e-09
C 1.2384 1.43263 -1.04204e-08
C 1.2384 2.85266 -2.53019e-08
C 0.00826837 3.5536 -3.45276e-08
C 0.00828189 4.97412 -3.75047e-08
C 1.2384 5.67414 -3.19448e-08
C 1.2384 7.08787 -3.27883e-08
C 0.00472572 7.79796 -1.89075e-08
C 2.46015 0.723316 7.14016e-09
C 3.69469 1.41644 -2.24295e-08
C 3.69281 2.83703 -2.88957e-08
C 2.46853 3.5536 -3.45269e-08
C 2.46852 4.97412 -3.75031e-08
C 3.69694 5.68709 -2.60226e-08
C 3.70936 7.10322 1.12185e-07
C 2.47207 7.79796 -1.89053e-08
C 4.9147 0.694928 1.20136e-07
C 6.13472 1.41644 -2.24284e-08
C 6.13659 2.83703 -2.88966e-08
C 4.9147 3.55033 -2.23067e-08
C 4.9147 4.96366 -4.21743e-09
C 6.13247 5.68709 -2.60268e-08
C 6.12004 7.10322 1.12189e-07
N 4.9147 7.79823 1.04764e-07
24
Atoms. Timestep: 60
C 0.0194544 0.725973 7.43208e-09
C 1.24026 1.4348 -1.07917e-08
C 1.24026 2.85374 -2.65055e-08
C 0.0110453 3.55414 -3.56856e-08
C 0.011061 4.97359 -3.85363e-08
C 1.24026 5.67307 -3.2586e-08
C 1.24026 7.08575 -3.31939e-08
C 0.00753139 7.79529 -1.88025e-08
C 2.46107 0.725973 7.43291e-09
C 3.6947 1.41856 -2.27033e-08
C 3.69282 2.83807 -2.95807e-08
C 2.46948 3.55414 -3.56848e-08
C 2.46946 4.97359 -3.85347e-08
C 3.69693 5.68604 -2.63848e-08
C 3.70943 7.10115 1.14567e-07
C 2.47299 7.79529 -1.88003e-08
C 4.91377 0.697492 1.22729e-07
C 6.13285 1.41856 -2.27021e-08
C 6.13473 2.83807 -2.95817e-08
C 4.91377 3.55085 -2.28192e-08
C 4.91377 4.96311 -4.1716e-09
C 6.13061 5.68604 -2.63891e-08
C 6.11811 7.10115 1.14571e-07
N 4.91377 7.79557 1.06722e-07
24
Atoms. Timestep: 70
C 0.0220694 0.728445 7.74115e-09
C 1.242 1.43682 -1.1246e-08
C 1.242 2.85476 -2.74433e-08
C 0.0136375 3.55464 -3.69905e-08
C 0.0136485 4.9731 -3.94608e-08
C 1.242 5.67207 -3.33584e-08
C 1.242 7.08379 -3.34619e-08
C 0.0101391 7.79279 -1.85621e-08
C 2.46194 0.728445 7.74201e-09
C 3.69471 1.42052 -2.28013e-08
C 3.69281 2.83902 -3.0413e-08
C 2.47037 3.55464 -3.69896e-08
C 2.47036 4.9731 -3.94592e-08
C 3.69693 5.68508 -2.65932e-08
C 3.7095 7.09921 1.16705e-07
C 2.47387 7.79279 -1.85598e-08
C 4.9129 0.699895 1.2494e-07
C 6.13109 1.42052 -2.28002e-08
C 6.13299 2.83902 -3.0414e-08
C 4.9129 3.55135 -2.34835e-08
C 4.9129 4.96263 -4.41871e-09
C 6.12888 5.68508 -2.65977e-08
C 6.1163 7.09921 1.16709e-07
N 4.9129 7.79307 1.09216e-07
24
Atoms. Timestep: 80
C 0.0238388 0.730122 8.03072e-09
C 1.24318 1.43819 -1.15759e-08
C 1.24318 2.85545 -2.83258e-08
C 0.0153896 3.55498 -3.78507e-08
C 0.0153963 4.97276 -4.02072e-08
C 1.24318 5.67138 -3.38611e-08
C 1.24318 7.08245 -3.35268e-08
C 0.0119031 7.79111 -1.84569e-08
C 2.46252 0.730123 8.03158e-09
C 3.69472 1.42186 -2.29018e-08
C 3.69281 2.83967 -3.09459e-08
C 2.47097 3.55498 -3.78498e-08
C 2.47097 4.97276 -4.02055e-08
C 3.69693 5.68442 -2.67703e-08
C 3.70955 7.0979 1.18265e-07
C 2.47446 7.79111 -1.84545e-08
C 4.91231 0.701507 1.26545e-07
C 6.1299 1.42185 -2.29007e-08
C 6.13182 2.83967 -3.0947e-08
C 4.91231 3.55168 -2.41001e-08
C 4.91231 4.96229 -4.47397e-09
C 6.12769 5.68442 -2.67749e-08
C 6.11507 7.0979 1.1827e-07
N 4.91231 7.7914 1.10986e-07
24
Atoms. Timestep: 90
C 0.026371 0.73251 8.61984e-09
C 1.24487 1.44013 -1.20587e-08
C 1.24487 2.85642 -3.00563e-08
C 0.0179009 3.55547 -3.87875e-08
C 0.0179117 4.97228 -4.14409e-08
C 1.24487 5.67042 -3.4483e-08
C 1.24487 7.08056 -3.32863e-08
C 0.0144305 7.78872 -1.86206e-08
C 2.46337 0.73251 8.62063e-09
C 3.69474 1.42375 -2.30341e-08
C 3.6928 2.8406 -3.15772e-08
C 2.47184 3.55547 -3.87867e-08
C 2.47183 4.97228 -4.1439e-08
C 3.69693 5.68349 -2.70525e-08
C 3.70961 7.09603 1.20414e-07
C 2.47531 7.78872 -1.86182e-08
C 4.91147 0.70381 1.28704e-07
C 6.12819 1.42375 -2.3033e-08
C 6.13013 2.8406 -3.15783e-08
C 4.91147 3.55215 -2.55908e-08
C 4.91147 4.96181 -4.26599e-09
C 6.12601 5.68349 -2.70573e-08
C 6.11332 7.09603 1.20419e-07
N 4.91147 7.789 1.13989e-07
24
Atoms. Timestep: 100
C 0.0275683 0.733635 8.5934e-09
C 1.24567 1.44105 -1.2289e-08
C 1.24567 2.85688 -3.01184e-08
C 0.0190905 3.5557 -3.99343e-08
C 0.0190917 4.97206 -4.17533e-08
C 1.24567 5.66995 -3.49865e-08
C 1.24567 7.07966 -3.37642e-08
C 0.0156308 7.78758 -1.80046e-08
C 2.46376 0.733635 8.59432e-09
C 3.69475 1.42465 -2.30655e-08
C 3.6928 2.84103 -3.21739e-08
C 2.47224 3.5557 -3.99334e-08
C 2.47224 4.97206 -4.17515e-08
C 3.69693 5.68305 -2.71095e-08
C 3.70964 7.09515 1.21598e-07
C 2.4757 7.78758 -1.80021e-08
C 4.91107 0.704899 1.30003e-07
C 6.12739 1.42465 -2.30644e-08
C 6.12934 2.84103 -3.2175e-08
C 4.91107 3.55237 -2.51342e-08
C 4.91107 4.96158 -4.69058e-09
C 6.12521 5.68305 -2.71144e-08
C 6.1125 7.09515 1.21602e-07
N 4.91107 7.78787 1.14673e-07
24
Atoms. Timestep: 110
C 0.0288315 0.734794 7.94684e-09
C 1.24651 1.442 -1.30002e-08
C 1.24651 2.85736 -2.88416e-08
C 0.0203425 3.55594 -3.96386e-08
C 0.0203441 4.97182 -4.26968e-08
C 1.24651 5.66948 -3.61047e-08
C 1.24651 7.07873 -3.42803e-08
C 0.0168927 7.78641 -1.74685e-08
C 2.46418 0.734794 7.94757e-09
C 3.69476 1.42558 -2.41629e-08
C 3.6928 2.84148 -3.26668e-08
C 2.47267 3.55594 -3.9637e-08
C 2.47267 4.97182 -4.26946e-08
C 3.69693 5.6826 -2.80129e-08
C 3.70968 7.09425 1.24389e-07
C 2.47612 7.78641 -1.74656e-08
C 4.91065 0.706022 1.3167e-07
C 6.12654 1.42558 -2.41611e-08
C 6.12849 2.84148 -3.26681e-08
C 4.91065 3.55261 -2.51056e-08
C 4.91065 4.96135 -5.94923e-09
C 6.12437 5.6826 -2.80176e-08
C 6.11162 7.09425 1.24393e-07
N 4.91065 7.78671 1.16226e-07
24
Atoms. Timestep: 111
C 0.0288315 0.734794 7.94684e-09
C 1.24651 1.442 -1.30002e-08
C 1.24651 2.85736 -2.88416e-08
C 0.0203425 3.55594 -3.96386e-08
C 0.0203441 4.97182 -4.26968e-08
C 1.24651 5.66948 -3.61047e-08
C 1.24651 7.07873 -3.42803e-08
C 0.0168927 7.78641 -1.74685e-08
C 2.46418 0.734794 7.94757e-09
C 3.69476 1.42558 -2.41629e-08
C 3.6928 2.84148 -3.26668e-08
C 2.47267 3.55594 -3.9637e-08
C 2.47267 4.97182 -4.26946e-08
C 3.69693 5.6826 -2.80129e-08
C 3.70968 7.09425 1.24389e-07
C 2.47612 7.78641 -1.74656e-08
C 4.91065 0.706022 1.3167e-07
C 6.12654 1.42558 -2.41611e-08
C 6.12849 2.84148 -3.26681e-08
C 4.91065 3.55261 -2.51056e-08
C 4.91065 4.96135 -5.94923e-09
C 6.12437 5.6826 -2.80176e-08
C 6.11162 7.09425 1.24393e-07
N 4.91065 7.78671 1.16226e-07
24
Atoms. Timestep: 120
C 0.0151362 0.714074 -0.0363893
C 1.22972 1.4441 0.0650742
C 1.23334 2.83475 -0.000244388
C 7.35111 3.53207 0.0090515
C 7.34705 4.94657 -0.0181319
C 1.26741 5.67621 0.0558324
C 1.25205 7.07898 -0.0395701
C 7.34329 7.76568 -0.0149067
C 2.45015 0.744915 -0.0412189
C 3.70655 1.3936 -0.00419843
C 3.70086 2.82265 0.0142879
C 2.46401 3.55881 -0.0315982
C 2.46568 4.95985 0.0381713
C 3.72267 5.71052 -0.0183043
C 3.68111 7.1088 0.0122484
C 2.47127 7.81672 0.0456043
C 4.93435 0.731133 0.0157194
C 6.13411 1.4327 -0.039639
C 6.13173 2.83253 -0.03463
C 4.91725 3.54024 -0.04464
C 4.93305 4.98911 0.015649
C 6.12762 5.68803 0.00804186
C 6.10064 7.08786 0.00299466
N 4.88744 7.82547 0.033579
24
Atoms. Timestep: 130
C 0.0337655 0.714085 -0.0431677
C 1.23043 1.41449 0.0498666
C 1.24965 2.85726 0.0165935
C 7.34518 3.55924 -0.00102174
C 7.37117 4.97717 -0.00118099
C 1.24154 5.65433 0.059906
C 1.24072 7.06955 -0.0159933
C 7.32727 7.77174 -0.0419341
C 2.45565 0.750313 -0.0238163
C 3.68595 1.45045 -0.00977339
C 3.68832 2.84105 -0.0146171
C 2.48126 3.5229 -0.0155069
C 2.51266 4.98009 0.0491549
C 3.68832 5.6906 0.00694728
C 3.71182 7.13751 0.0386456
C 2.44337 7.79395 0.0371749
C 4.90503 0.709248 0.0105671
C 6.14249 1.41926 -0.0648594
C 6.12733 2.84617 -0.0627767
C 4.90305 3.57033 -0.0533394
C 4.90444 4.94269 -0.00014619
C 6.15076 5.67925 0.00840084
C 6.08758 7.11155 0.0108367
N 4.9134 7.78912 0.049942
24
Atoms. Timestep: 140
C 0.0255089 0.736783 -0.0334335
C 1.26156 1.46612 -0.0241088
C 1.23734 2.8546 0.0326236
C 7.35409 3.57289 -0.0214957
C 7.34542 4.98121 0.0321183
C 1.28232 5.66758 0.0279211
C 1.22106 7.06011 0.0371429
C 7.34203 7.78287 -0.0492346
C 2.46834 0.724101 0.0350802
C 3.68716 1.43398 -0.0176563
C 3.69773 2.86495 -0.0573331
C 2.47109 3.58278 0.0329885
C 2.46066 4.95161 0.0344882
C 3.71156 5.69929 0.0539805
C 3.70723 7.07857 0.0623753
C 2.4869 7.77799 0.000718384
C 4.89181 0.71008 -0.0193574
C 6.10199 1.42507 -0.0637172
C 6.12623 2.84783 -0.0778941
C 4.91031 3.54608 -0.044058
C 4.91155 4.98728 -0.0278628
C 6.10199 5.67732 -0.000148125
C 6.12157 7.06671 0.00811614
N 4.90943 7.78241 0.0449812
24
Atoms. Timestep: 150
C 0.0222445 0.767664 -0.0345089
C 1.24385 1.44042 -0.0646728
C 1.24982 2.88895 0.0161706
C 7.33802 3.55348 -0.0266537
C 7.34235 4.97166 0.0390513
C 1.20968 5.67616 0.0131737
C 1.27869 7.10227 0.0511727
C 7.35518 7.80007 -0.0111696
C 2.4633 0.725618 0.0473318
C 3.68829 1.41857 -0.0224584
C 3.68103 2.8407 -0.0587216
C 2.46179 3.5548 0.0537441
C 2.47753 5.00282 0.0314873
C 3.68624 5.64808 0.0732885
C 3.71347 7.0769 0.0663401
C 2.4805 7.7725 0.00799104
C 4.90611 0.694212 -0.0485967
C 6.11829 1.43684 -0.0555356
C 6.13144 2.84527 -0.0754186
C 4.9203 3.5771 -0.0560509
C 4.90208 4.95136 -0.024135
C 6.13839 5.68249 -0.00432583
C 6.11718 7.10672 -0.000140691
N 4.90888 7.77906 0.0252811
24
Atoms. Timestep: 160
C 0.0314944 0.739261 -0.048511
C 1.2435 1.45463 -0.0423019
C 1.23997 2.83865 -0.0255584
C 7.34648 3.55512 -0.012219
C 7.33634 4.96551 0.00604866
C 1.23852 5.69515 0.0320749
C 1.22979 7.09238 0.0213424
C 7.35838 7.82509 0.0382392
C 2.44884 0.743908 0.00191148
C 3.69522 1.42179 -0.0278081
C 3.69539 2.8293 -0.0156933
C 2.48498 3.56377 0.0297573
C 2.42954 4.96796 0.0479481
C 3.69471 5.69095 0.0550432
C 3.72622 7.08904 0.0519847
C 2.50586 7.80582 0.0614809
C 4.91712 0.703021 -0.058514
C 6.12671 1.42982 -0.062442
C 6.11248 2.84519 -0.0635738
C 4.88671 3.52689 -0.074802
C 4.92528 4.95923 0.00926193
C 6.12035 5.70472 0.00466969
C 6.12427 7.1186 -0.00028389
N 4.91632 7.78295 -0.00422334
24
Atoms. Timestep: 170
C 0.0278741 0.750123 -0.0399068
C 1.2468 1.43703 -0.0103269
C 1.24544 2.8682 -0.0519797
C 7.3401 3.56029 -0.0157985
C 7.34631 4.99685 -0.0233134
C 1.24336 5.6672 0.0484251
C 1.25796 7.09582 0.0224042
C 7.33757 7.78081 0.0460404
C 2.48262 0.742556 -0.03665
C 3.69507 1.42263 -0.0332214
C 3.67922 2.83882 0.0109137
C 2.44482 3.54213 -0.00826009
C 2.48753 4.96619 0.0645753
C 3.69386 5.68729 0.0304943
C 3.71138 7.11838 0.0295983
C 2.4572 7.79377 0.0833786
C 4.90746 0.721224 -0.0464397
C 6.12517 1.4234 -0.0749313
C 6.12867 2.8353 -0.0626216
C 4.91394 3.56106 -0.0510064
C 4.88625 4.97143 0.0258461
C 6.11351 5.68734 0.0159754
C 6.11602 7.09585 0.0124588
N 4.92735 7.8096 -0.0304902
24
Atoms. Timestep: 180
C 0.0230918 0.709365 -0.0100555
C 1.25109 1.44386 -0.0104883
C 1.22007 2.86311 -0.0450314
C 7.3429 3.58094 -0.052494
C 7.34494 4.97405 -0.0167243
C 1.26653 5.66249 0.0456486
C 1.23864 7.0495 0.070432
C 7.345 7.77319 0.0116553
C 2.4507 0.728246 -0.0285946
C 3.69712 1.45268 -0.0378897
C 3.6908 2.86263 -0.00891198
C 2.47983 3.56744 -0.0234111
C 2.48311 4.977 0.0551789
C 3.6886 5.71082 0.0312762
C 3.69631 7.11164 0.0183486
C 2.47594 7.79073 0.0438555
C 4.91592 0.720211 -0.0380428
C 6.13135 1.44016 -0.0748234
C 6.12963 2.86568 -0.0634908
C 4.90359 3.57241 0.00884502
C 4.90554 4.96573 0.01125
C 6.11177 5.67216 0.01596
C 6.0858 7.08531 0.0251267
N 4.89502 7.8029 -0.0372767
24
Atoms. Timestep: 190
C 0.0297482 0.730418 0.00702872
C 1.2199 1.44812 -0.0249056
C 1.2676 2.85927 -0.0313071
C 7.3499 3.556 -0.0807353
C 7.35598 4.97707 0.00939464
C 1.23318 5.65879 0.0469475
C 1.23591 7.07801 0.0949444
C 7.32139 7.75975 -0.00250632
C 2.46287 0.758272 9.11668e-05
C 3.68213 1.43335 -0.0411313
C 3.69705 2.85487 -0.0350781
C 2.46829 3.57169 -0.0172355
C 2.46911 4.97983 0.02316
C 3.7118 5.68792 0.0417403
C 3.70143 7.10175 0.0138574
C 2.45547 7.78662 -0.00623735
C 4.90218 0.727904 -0.0378085
C 6.13626 1.43903 -0.0444149
C 6.11538 2.86306 -0.0499053
C 4.90515 3.55501 0.0388184
C 4.91184 4.98051 0.00271762
C 6.13155 5.69284 0.0117741
C 6.09213 7.10183 0.0128504
N 4.88901 7.78658 -0.0169306
24
Atoms. Timestep: 200
C 0.0036794 0.744266 -0.00865499
C 1.25337 1.44297 -0.0261862
C 1.24128 2.86524 -0.0393972
C 7.36143 3.54697 -0.0642354
C 7.33857 4.96299 0.0173975
C 1.2409 5.69829 0.0520631
C 1.22657 7.10498 0.062202
C 7.33399 7.81897 0.0229732
C 2.44315 0.733725 0.00109368
C 3.68887 1.43088 -0.0383245
C 3.67907 2.83912 -0.0307778
C 2.47703 3.55785 -0.015133
C 2.46883 4.98748 0.00269934
C 3.68621 5.68036 0.0340164
C 3.68939 7.09844 0.00782982
C 2.45947 7.80831 -0.0120315
C 4.89895 0.702876 -0.0334074
C 6.10315 1.42301 -0.00800962
C 6.14592 2.82384 -0.0293928
C 4.91758 3.57257 0.0112578
C 4.92352 4.959 0.0180723
C 6.12893 5.69512 0.0125525
C 6.10233 7.10052 -0.00256145
N 4.9067 7.80628 0.00375407
24
Atoms. Timestep: 210
C 0.022676 0.772868 -0.0265716
C 1.2248 1.45828 -0.0193278
C 1.25062 2.85567 -0.0513888
C 7.33627 3.56999 -0.015331
C 7.35821 4.98552 0.00975065
C 1.23758 5.6918 0.0403339
C 1.23159 7.10651 0.00808775
C 7.33472 7.81908 0.0435636
C 2.46279 0.746359 -0.0255549
C 3.67734 1.42372 -0.0300291
C 3.71218 2.85391 -0.0144218
C 2.46451 3.56803 -0.0231925
C 2.45284 4.97753 0.00228596
C 3.69076 5.69674 0.00678406
C 3.70346 7.1009 0.00574849
C 2.47516 7.78441 0.0163639
C 4.88664 0.698998 -0.0145097
C 6.10418 1.42438 0.0039396
C 6.11892 2.84565 -0.00868297
C 4.92165 3.52744 -0.036405
C 4.89656 4.96621 0.0254872
C 6.1125 5.68234 0.0141266
C 6.11443 7.11629 0.00522921
N 4.89519 7.77241 0.00800241
24
Atoms. Timestep: 220
C 0.0107419 0.743203 -0.0115898
C 1.24891 1.4611 -0.0310022
C 1.23444 2.89235 -0.0354991
C 7.34727 3.57494 0.0277687
C 7.3275 4.9932 0.00578975
C 1.23681 5.68142 0.00415972
C 1.2483 7.08649 -0.0183225
C 7.33929 7.79489 0.0239682
C 2.44515 0.745148 -0.0401525
C 3.68855 1.44194 -0.0156539
C 3.67431 2.8431 -0.0155754
C 2.47858 3.56687 -0.0277673
C 2.46711 4.98557 0.00854961
C 3.6837 5.67137 -0.0150809
C 3.70672 7.08207 0.0115321
C 2.47188 7.8034 0.0266504
C 4.89835 0.701776 0.00926746
C 6.11253 1.44386 -0.00448851
C 6.12537 2.85431 0.000908065
C 4.89211 3.58185 -0.0476901
C 4.8989 4.95748 -0.00282186
C 6.11715 5.6983 0.0169521
C 6.10129 7.08909 0.0303073
N 4.90642 7.78459 0.00268055
24
Atoms. Timestep: 230
C 0.0259314 0.726846 0.00697096
C 1.22207 1.46048 -0.039727
C 1.23964 2.87099 -0.00351099
C 7.33117 3.57747 0.0372037
C 7.33424 4.98307 0.0156875
C 1.23818 5.67112 -0.0316952
C 1.24391 7.07898 -0.010685
C 7.34224 7.77218 -0.010583
C 2.45962 0.754003 -0.0227094
C 3.68684 1.42886 -0.00596549
C 3.67942 2.85701 -0.0371945
C 2.45012 3.57144 -0.0242413
C 2.46152 4.97274 -0.00489064
C 3.69143 5.69322 -0.02159
C 3.69303 7.10597 0.0141334
C 2.47431 7.79549 -0.000425092
C 4.91205 0.729168 0.0199222
C 6.12218 1.43953 -0.00129707
C 6.11227 2.87205 0.00180375
C 4.89635 3.55925 -0.0242622
C 4.91207 4.98801 -0.0432341
C 6.10333 5.69026 0.0156826
C 6.10715 7.10619 0.0413325
N 4.90816 7.80308 0.00805234
24
Atoms. Timestep: 240
C 0.0228818 0.74046 0.00907823
C 1.23785 1.43881 -0.0210491
C 1.21412 2.84995 0.0173475
C 7.33446 3.55988 0.0201
C 7.34712 4.98235 0.0190008
C 1.2402 5.67253 -0.0303082
C 1.24106 7.08014 -0.0106259
C 7.34289 7.79747 -0.0196467
C 2.44687 0.744768 -0.00196957
C 3.68451 1.45165 -0.00783394
C 3.68446 2.85442 -0.0445272
C 2.45422 3.55335 -0.0173357
C 2.46587 4.98647 -0.036168
C 3.68568 5.71865 -0.0230293
C 3.71315 7.12942 0.00462814
C 2.45457 7.80231 -0.0365995
C 4.90641 0.730703 0.0212364
C 6.13922 1.43994 0.0148903
C 6.11662 2.8401 0.00727716
C 4.89861 3.56662 -0.00577322
C 4.88219 4.97079 -0.0508644
C 6.12421 5.70468 0.0138514
C 6.09851 7.11887 0.0258025
N 4.89843 7.81704 0.0308723
24
Atoms. Timestep: 250
C 0.0249144 0.744916 0.000748651
C 1.24583 1.44607 0.0201159
C 1.24417 2.86495 0.0174944
C 7.33523 3.55737 0.00232587
C 7.33013 4.97775 0.00675538
C 1.24282 5.68153 -0.00751606
C 1.22965 7.09761 -0.0339651
C 7.3285 7.80711 -0.000626885
C 2.46555 0.743125 0.0034263
C 3.68082 1.43792 -0.00975529
C 3.67121 2.85693 -0.0281283
C 2.46033 3.56963 -0.0151437
C 2.46979 4.9818 -0.0548667
C 3.68325 5.70251 -0.034464
C 3.69443 7.12183 -0.0201087
C 2.47143 7.80072 -0.0430309
C 4.89573 0.734583 0.0187188
C 6.10637 1.42716 0.0285921
C 6.12066 2.84948 0.0183081
C 4.90016 3.57079 -0.0140827
C 4.90916 4.98487 -0.0122631
C 6.10589 5.69674 0.00403573
C 6.10182 7.11298 -0.00112219
N 4.90614 7.82114 0.0430321
24
Atoms. Timestep: 260
C 0.0124265 0.760292 0.00944736
C 1.23641 1.46954 0.0463893
C 1.25029 2.88004 0.0108482
C 7.34663 3.5755 -0.00155404
C 7.33552 4.9867 -0.00972998
C 1.22117 5.68819 -0.00413008
C 1.23674 7.09778 -0.0432756
C 7.33235 7.79623 0.00901748
C 2.45672 0.748611 -0.00508335
C 3.68304 1.44632 -0.00364344
C 3.69031 2.86053 -0.00418137
C 2.46814 3.58642 -0.0216968
C 2.45271 4.998 -0.0461383
C 3.69765 5.68933 -0.0457084
C 3.70836 7.09083 -0.0396683
C 2.46741 7.79406 -0.0273328
C 4.89629 0.716594 0.0211242
C 6.11469 1.44951 0.0309012
C 6.11003 2.86173 0.023693
C 4.89863 3.56511 -0.0177854
C 4.89895 4.97587 0.0238802
C 6.11758 5.70155 -0.00604022
C 6.09431 7.10842 -0.00984773
N 4.89391 7.79181 0.0290811
24
Atoms. Timestep: 270
C 0.0181927 0.756722 0.0355653
C 1.23514 1.4623 0.035782
C 1.23313 2.88701 0.0109504
C 7.34132 3.58035 0.0056363
C 7.33908 4.99756 -0.0167892
C 1.23347 5.69728 -0.0339278
C 1.23131 7.0963 -0.0280062
C 7.3339 7.82069 3.10531e-05
C 2.4422 0.753212 -0.00237149
C 3.68575 1.44235 0.00999868
C 3.68186 2.8621 0.00601098
C 2.47239 3.58102 -0.0215273
C 2.45562 5.00555 -0.0272205
C 3.67564 5.68703 -0.0409778
C 3.6974 7.09797 -0.0424465
C 2.46851 7.79735 -0.015052
C 4.90379 0.71092 0.0249936
C 6.11177 1.45152 0.0256555
C 6.13739 2.86722 0.0154033
C 4.90842 3.57113 0.00283536
C 4.90215 4.96446 0.0140851
C 6.11087 5.6939 -0.00687676
C 6.10627 7.10715 0.00415646
N 4.89609 7.78635 -0.00227765
24
Atoms. Timestep: 280
C 0.0185539 0.765786 0.0533982
C 1.23666 1.46785 0.0105916
C 1.24338 2.8703 0.0122593
C 7.34789 3.58851 0.00986659
C 7.34022 4.99779 -0.0158179
C 1.23981 5.69659 -0.0556677
C 1.22769 7.11542 -0.00781118
C 7.3331 7.81016 -0.00146331
C 2.46425 0.753158 0.0148562
C 3.68439 1.43261 0.0185894
C 3.69021 2.85156 0.0101656
C 2.45238 3.56868 -0.00786859
C 2.46266 4.97255 -0.0188249
C 3.68816 5.70389 -0.0185498
C 3.68614 7.11946 -0.0278484
C 2.45719 7.81334 -0.00771094
C 4.8995 0.725123 0.0188529
C 6.1185 1.43538 0.0252363
C 6.12189 2.85642 0.0111077
C 4.9102 3.55764 0.0290236
C 4.89532 4.98454 -0.024206
C 6.10949 5.69744 0.000138537
C 6.10681 7.10798 0.0118753
N 4.9137 7.80667 -0.0270292
24
Atoms. Timestep: 290
C 0.0237534 0.746045 0.0356831
C 1.24161 1.45032 0.00783398
C 1.23062 2.8752 0.00980965
C 7.33747 3.56441 0.0103993
C 7.34804 4.99201 -0.0122352
C 1.24354 5.68766 -0.0422359
C 1.2398 7.09656 -0.00298594
C 7.33113 7.80703 0.0153959
C 2.45131 0.761311 0.0263881
C 3.69596 1.4502 0.0248851
C 3.68566 2.85301 0.0226128
C 2.47864 3.5578 0.00492078
C 2.4646 4.99228 -0.0199555
C 3.68128 5.71167 -0.00407303
C 3.70933 7.1262 -0.0129098
C 2.46408 7.81725 -0.000791198
C 4.90974 0.725786 0.00761566
C 6.11911 1.45037 0.0285524
C 6.12054 2.86 0.0186445
C 4.88943 3.58247 0.0271415
C 4.90129 4.97809 -0.0331408
C 6.12044 5.70647 -0.00434495
C 6.09624 7.11974 -0.00451937
N 4.89408 7.8156 -0.0282372
24
Atoms. Timestep: 300
C 0.0197878 0.748929 0.00533057
C 1.22977 1.46144 0.0280287
C 1.24299 2.87156 -0.000178863
C 7.3349 3.57268 0.0035804
C 7.33743 4.97954 -0.00740508
C 1.24089 5.67917 -0.00735956
C 1.24485 7.08907 -0.00309395
C 7.34048 7.7955 0.0265548
C 2.46523 0.758781 0.0244954
C 3.6871 1.44617 0.0303783
C 3.68777 2.87029 0.0384613
C 2.45525 3.58783 0.0106483
C 2.47592 4.99066 -0.015844
C 3.69521 5.70708 -0.00953787
C 3.6969 7.11705 -0.00388034
C 2.47886 7.8035 0.0121205
C 4.90246 0.74206 -0.00390818
C 6.12643 1.44876 0.0261209
C 6.10288 2.87394 0.0326954
C 4.90576 3.58264 0.00562329
C 4.90326 4.99853 -0.0038272
C 6.12174 5.7004 -0.0238383
C 6.0958 7.11835 -0.02166
N 4.89925 7.81474 -0.0139747
24
Atoms. Timestep: 310
C 0.0181826 0.755513 0.00106753
C 1.24693 1.46103 0.0376492
C 1.23199 2.88178 -0.00170577
C 7.33988 3.57262 -0.00110423
C 7.34105 4.99154 -0.00587323
C 1.2399 5.68654 0.0212071
C 1.23953 7.09403 0.0100837
C 7.34098 7.80247 0.00619063
C 2.4511 0.745939 0.0232279
C 3.68055 1.46678 0.028307
C 3.67477 2.87957 0.0382037
C 2.462 3.57641 0.0112014
C 2.46305 4.9971 -0.00161245
C 3.69535 5.70552 -0.0153139
C 3.70744 7.1133 0.00407622
C 2.45987 7.80464 0.0164622
C 4.90096 0.729613 0.00388303
C 6.1111 1.44722 0.0106299
C 6.12741 2.85552 0.025381
C 4.89802 3.58542 0.00294211
C 4.91064 4.98829 0.0196456
C 6.11783 5.70919 -0.0327624
C 6.11378 7.10976 -0.0207655
N 4.90674 7.809 0.00504882
24
Atoms. Timestep: 320
C 0.0236978 0.759387 0.013972
C 1.23044 1.46664 0.0264189
C 1.23906 2.87809 0.0128504
C 7.33848 3.58124 -0.00241232
C 7.3451 4.99819 -0.00758364
C 1.23436 5.69787 0.0254783
C 1.23283 7.10563 0.026297
C 7.33985 7.82266 -0.0191238
C 2.45804 0.763863 0.0297198
C 3.68177 1.439 0.0221205
C 3.68467 2.8612 0.022675
C 2.4596 3.58155 0.00739489
C 2.461 4.99554 0.0159056
C 3.68189 5.70075 0.00189952
C 3.70625 7.11814 0.0108395
C 2.47348 7.80414 0.0174174
C 4.88678 0.721216 0.0260519
C 6.11695 1.43837 -0.000279461
C 6.11557 2.86301 0.00535274
C 4.90742 3.56393 0.0251625
C 4.90411 4.97405 0.0125284
C 6.1239 5.70258 -0.012121
C 6.10769 7.12662 -0.00504171
N 4.90621 7.80292 0.0139334
24
Atoms. Timestep: 330
C 0.0125647 0.769402 0.0138991
C 1.24074 1.47352 0.0136041
C 1.23761 2.88428 0.0226406
C 7.34234 3.57635 -8.93223e-05
C 7.33763 4.99235 -0.00305313
C 1.23667 5.70194 0.00983869
C 1.24283 7.11662 0.0229932
C 7.33791 7.81272 -0.016352
C 2.44675 0.752558 0.0282637
C 3.68903 1.43642 0.0205482
C 3.68892 2.84472 0.00562586
C 2.47045 3.57733 0.013132
C 2.45925 4.99484 0.0252788
C 3.69163 5.7003 0.0264498
C 3.69281 7.10576 0.0166828
C 2.4705 7.82142 0.0237387
C 4.91613 0.718877 0.033669
C 6.11044 1.44893 0.00498118
C 6.1233 2.85703 -0.00848655
C 4.89957 3.56707 0.0366342
C 4.89633 4.98206 -0.000581415
C 6.10365 5.70456 0.0134564
C 6.10287 7.11313 0.00393314
N 4.89635 7.80532 0.0209638
24
Atoms. Timestep: 340
C 0.023496 0.755233 0.000694875
C 1.23748 1.46366 0.0154173
C 1.24611 2.89016 0.0147928
C 7.34058 3.57938 0.00480817
C 7.33106 5.00044 0.00642598
C 1.23346 5.6876 0.00224954
C 1.23145 7.09961 0.00290076
C 7.3261 7.81149 0.00762484
C 2.45944 0.760725 0.0213315
C 3.68876 1.44117 0.021802
C 3.6836 2.86163 0.00515629
C 2.47484 3.57375 0.0233155
C 2.46944 4.99433 0.0302588
C 3.68035 5.70542 0.0408851
C 3.69853 7.12292 0.0316321
C 2.45758 7.80333 0.0297029
C 4.89698 0.722498 0.0278225
C 6.12267 1.45179 0.0163647
C 6.12011 2.87171 6.10737e-05
C 4.90117 3.57815 0.0188728
C 4.89763 4.97601 0.00960539
C 6.11076 5.69912 0.0249546
C 6.09758 7.10914 0.0145963
N 4.9024 7.80028 0.0299458
24
Atoms. Timestep: 350
C 0.0220146 0.748117 -0.00283834
C 1.24311 1.46373 0.0193069
C 1.23506 2.8704 0.00429868
C 7.3396 3.58644 0.00925746
C 7.3444 4.99016 0.0197282
C 1.23924 5.68234 0.0105625
C 1.21922 7.0818 -0.00624548
C 7.33174 7.79507 0.0279527
C 2.45638 0.748057 0.0208364
C 3.68529 1.45482 0.0272319
C 3.69123 2.86919 0.0136281
C 2.46182 3.58475 0.0267679
C 2.45851 4.99351 0.02897
C 3.68684 5.71576 0.0448134
C 3.69888 7.12214 0.0479057
C 2.45911 7.80684 0.0292
C 4.90291 0.731432 0.0205299
C 6.11845 1.44389 0.0185141
C 6.11843 2.86461 0.0166527
C 4.89867 3.57411 -0.00985748
C 4.89489 4.99048 0.0337499
C 6.11318 5.70094 0.0192119
C 6.09672 7.11551 0.0279096
N 4.90169 7.81302 0.0352025
24
Atoms. Timestep: 360
C 0.0163197 0.748725 0.0148226
C 1.23507 1.4473 0.0158541
C 1.23429 2.87638 0.00605221
C 7.3375 3.56034 0.0176379
C 7.33527 4.98614 0.0249977
C 1.23429 5.68763 0.0210362
C 1.24683 7.10248 0.0123878
C 7.33468 7.80119 0.0261904
C 2.45527 0.753572 0.0294158
C 3.6873 1.44913 0.0326568
C 3.67135 2.86805 0.0265035
C 2.45562 3.57338 0.0210935
C 2.46989 4.99702 0.0280891
C 3.68916 5.7063 0.0453717
C 3.6913 7.12151 0.0551393
C 2.45771 7.80375 0.0186056
C 4.90124 0.738231 0.0161844
C 6.11957 1.44736 0.0117472
C 6.12096 2.85756 0.0168831
C 4.90799 3.5814 -0.00669384
C 4.9071 4.98715 0.0434032
C 6.11695 5.70952 0.0212394
C 6.09271 7.11548 0.0406755
N 4.88633 7.82141 0.0397003
24
Atoms. Timestep: 370
C 0.0163544 0.75273 0.0325885
C 1.23345 1.46338 0.0113267
C 1.23478 2.85941 0.0207173
C 7.33849 3.57457 0.0244657
C 7.33994 4.98713 0.0239915
C 1.23883 5.69363 0.0272782
C 1.22835 7.09988 0.036706
C 7.33561 7.81249 0.0195794
C 2.45687 0.760744 0.0336195
C 3.67784 1.45287 0.0353546
C 3.6855 2.8647 0.0284312
C 2.45796 3.57713 0.0109804
C 2.46148 4.98874 0.0325075
C 3.69365 5.70038 0.0473955
C 3.69986 7.11289 0.0495783
C 2.47707 7.81555 0.0168885
C 4.89339 0.729608 0.0197631
C 6.11417 1.4424 0.00641511
C 6.11181 2.86168 0.00539053
C 4.89544 3.56915 0.0263206
C 4.91033 4.97936 0.0370152
C 6.12059 5.70694 0.0357557
C 6.09746 7.13041 0.0438811
N 4.89301 7.80789 0.0449297
24
Atoms. Timestep: 380
C 0.0132486 0.767336 0.0298484
C 1.23305 1.45987 0.0199903
C 1.23345 2.89095 0.0264888
C 7.33511 3.57992 0.0244138
C 7.34873 5.00075 0.0304126
C 1.23998 5.69456 0.0353464
C 1.23935 7.10695 0.0477291
C 7.33493 7.81371 0.0305755
C 2.44585 0.756556 0.0243008
C 3.68307 1.44764 0.0297945
C 3.68033 2.85819 0.0274821
C 2.4655 3.5719 0.0133308
C 2.46133 4.99141 0.0347256
C 3.68751 5.69423 0.0438494
C 3.70931 7.10636 0.0355749
C 2.45896 7.80466 0.0304548
C 4.89417 0.719938 0.0272557
C 6.1036 1.44445 0.00897153
C 6.11774 2.86036 0.00592488
C 4.90318 3.57264 0.0495649
C 4.89982 4.98045 0.0351308
C 6.11661 5.70654 0.0482452
C 6.11277 7.11244 0.0336884
N 4.9096 7.80689 0.0480026
24
Atoms. Timestep: 390
C 0.00957482 0.757662 0.0190325
C 1.22727 1.47917 0.0355046
C 1.23462 2.88552 0.0175177
C 7.33985 3.58291 0.0212001
C 7.33609 4.99629 0.0405954
C 1.23983 5.69748 0.0474254
C 1.23868 7.10783 0.045239
C 7.33878 7.81464 0.0467704
C 2.44519 0.748024 0.0174567
C 3.67642 1.42908 0.0192991
C 3.68552 2.85667 0.0260398
C 2.46111 3.58221 0.0283427
C 2.46731 4.99304 0.0340711
C 3.68358 5.70741 0.0300593
C 3.69736 7.11525 0.0265646
C 2.47831 7.80114 0.0428136
C 4.90065 0.723991 0.0326616
C 6.11477 1.45297 0.0168048
C 6.12147 2.86569 0.026202
C 4.90511 3.57229 0.0481756
C 4.89877 4.97996 0.0416914
C 6.11487 5.69454 0.0473717
C 6.10816 7.1075 0.0350204
N 4.91059 7.79987 0.0380972
24
Atoms. Timestep: 400
C 0.0223191 0.75796 0.0211883
C 1.23709 1.45755 0.0331822
C 1.24207 2.87687 0.0108189
C 7.34259 3.58066 0.0284286
C 7.34504 4.99271 0.0492399
C 1.23315 5.68997 0.0540001
C 1.23681 7.0943 0.044428
C 7.33221 7.80226 0.0459341
C 2.44736 0.759141 0.0234792
C 3.68334 1.4466 0.0109128
C 3.67976 2.85255 0.0307041
C 2.47039 3.57632 0.0398773
C 2.4611 4.99969 0.0347435
C 3.69135 5.705 0.0211189
C 3.70732 7.11875 0.0266449
C 2.46266 7.81721 0.0461045
C 4.90589 0.725178 0.029726
C 6.11952 1.4483 0.0271427