LAMMPS (29 Oct 2020)
#Input example Generated by GS JUNG@ornl
units           metal
dimension       3
boundary        p p p
atom_style      full
atom_modify     sort 0 0.0    # turn off sorting of the coordinates
read_data       graphene.data
Reading data file ...
  orthogonal box = (0.0000000 0.0000000 -16.750000) to (7.3785364 8.5200000 16.750000)
  1 by 1 by 1 MPI processor grid
  reading atoms ...
  24 atoms
Finding 1-2 1-3 1-4 neighbors ...
  special bond factors lj:    0.0      0.0      0.0     
  special bond factors coul:  0.0      0.0      0.0     
     0 = max # of 1-2 neighbors
     0 = max # of 1-3 neighbors
     0 = max # of 1-4 neighbors
     1 = max # of special neighbors
  special bonds CPU = 0.000 seconds
  read_data CPU = 0.006 seconds

# initialize system

velocity	all create 300.0 87287 loop geom

pair_style      zero 1.0
pair_coeff	* *

neighbor        1.0 bin
neigh_modify    every 1 delay 0 check yes

variable	dt equal 0.001
timestep        ${dt}
timestep        0.001
dump		equil all xyz 10 equil.xyz
dump_modify     equil element C N

thermo      	10
thermo_style 	custom step temp ke pe press pxx pyy pzz xlo xhi ylo yhi
thermo_modify   norm no flush yes

fix             integ all nve
fix             2 all dftbp dftb_in.hsd NULL
fix_modify      2 energy yes
fix             therm   all langevin  10.0 10.0  0.1 699483

fix	        emin all box/relax x 0.0 y 0.0
min_style       cg
min_modify      dmax 0.2
min_modify      line quadratic
minimize        0.0 1.0e-8 1000 10000
Neighbor list info ...
  update every 1 steps, delay 0 steps, check yes
  max neighbors/atom: 2000, page size: 100000
  master list distance cutoff = 2
  ghost atom cutoff = 2
  binsize = 1, bins = 8 9 34
  1 neighbor lists, perpetual/occasional/extra = 1 0 0
  (1) pair zero, perpetual
      attributes: half, newton on
      pair build: half/bin/newton
      stencil: half/bin/3d/newton
      bin: standard
Per MPI rank memory allocation (min/avg/max) = 8.027 | 8.027 | 8.027 Mbytes
Step Temp KinEng PotEng Press Pxx Pyy Pzz Xlo Xhi Ylo Yhi 
       0          300     0.891895   -1428.6694    451.91672    367.34968     534.1549    454.24557            0    7.3785364            0         8.52 
      10          300     0.891895   -1428.7317    452.17282       367.56    534.45925    454.49921  0.001033996    7.3775024 0.0011837204    8.5188163 
      20          300     0.891895   -1428.7507    452.98497    368.25761    535.43625    455.26104 0.0041355699    7.3744009 0.0047319686     8.515268 
      30          300     0.891895   -1428.7663    453.75339      368.918    536.36075    455.98141 0.0070619846    7.3714745 0.0080779713     8.511922 
      40          300     0.891895   -1428.7792    454.49355     369.5544    537.25136    456.67488 0.0098735216    7.3686629  0.011290576    8.5087094 
      50          300     0.891895   -1428.7909    455.30982    370.25657    538.23369    457.43921  0.012966143    7.3655703  0.014821458    8.5051785 
      60          300     0.891895   -1428.7992    456.04808    370.89196    539.12223    458.13006  0.015756448      7.36278   0.01800347    8.5019965 
      70          300     0.891895    -1428.805    456.74153    371.48906    539.95693    458.77862  0.018371863    7.3601646   0.02098216    8.4990178 
      80          300     0.891895   -1428.8079     457.2102    371.89277    540.52108    459.21674  0.020137579    7.3583989  0.022988465    8.4970115 
      90          300     0.891895   -1428.8106     457.8825    372.47216    541.33038    459.84495  0.022669068    7.3558674  0.025855445    8.4941446 
     100          300     0.891895   -1428.8112    458.20042    372.74626    541.71309     460.1419  0.023865796    7.3546706  0.027206468    8.4927935 
     110          300     0.891895   -1428.8115    458.53276    373.03307    542.11297    460.45225  0.025128064    7.3534084  0.028602221    8.4913978 
     111          300     0.891895   -1428.8115    458.53276    373.03307    542.11297    460.45225  0.025128064    7.3534084  0.028602221    8.4913978 
Loop time of 57.2184 on 1 procs for 111 steps with 24 atoms

127.6% CPU use with 1 MPI tasks x no OpenMP threads

Minimization stats:
  Stopping criterion = linesearch alpha is zero
  Energy initial, next-to-last, final = 
     -1428.66935850671  -1428.81149252071  -1428.81149252074
  Force two-norm initial, final = 2.1263771 0.00046091672
  Force max component initial, final = 1.1193935 0.00019644907
  Final line search alpha, max atom move = 0.015976932 3.1386535e-06
  Iterations, force evaluations = 111 188

MPI task timing breakdown:
Section |  min time  |  avg time  |  max time  |%varavg| %total
---------------------------------------------------------------
Pair    | 0.00022905 | 0.00022905 | 0.00022905 |   0.0 |  0.00
Bond    | 1.4831e-05 | 1.4831e-05 | 1.4831e-05 |   0.0 |  0.00
Neigh   | 0          | 0          | 0          |   0.0 |  0.00
Comm    | 0.0003229  | 0.0003229  | 0.0003229  |   0.0 |  0.00
Output  | 0.010488   | 0.010488   | 0.010488   |   0.0 |  0.02
Modify  | 57.204     | 57.204     | 57.204     |   0.0 | 99.98
Other   |            | 0.003049   |            |       |  0.01

Nlocal:        24.0000 ave          24 max          24 min
Histogram: 1 0 0 0 0 0 0 0 0 0
Nghost:        30.0000 ave          30 max          30 min
Histogram: 1 0 0 0 0 0 0 0 0 0
Neighs:        36.0000 ave          36 max          36 min
Histogram: 1 0 0 0 0 0 0 0 0 0

Total # of neighbors = 36
Ave neighs/atom = 1.5000000
Ave special neighs/atom = 0.0000000
Neighbor list builds = 0
Dangerous builds = 0
unfix		emin

unfix           integ
fix             3 all npt temp 300 300 1.0 x 0 0 10 y 0 0 10
run             500
Per MPI rank memory allocation (min/avg/max) = 6.902 | 6.902 | 6.902 Mbytes
Step Temp KinEng PotEng Press Pxx Pyy Pzz Xlo Xhi Ylo Yhi 
     111          300     0.891895   -1428.8115    458.53276    373.03307    542.11297    460.45225  0.025128064    7.3534084  0.028602221    8.4913978 
     120     108.1923   0.32165392   -1428.3009    165.37493    204.10148    181.93864    110.08465  0.025127396     7.353409  0.028601072    8.4913989 
     130    113.84461   0.33845811   -1428.3614    174.00849    168.03619    147.31882    206.67045  0.025125364    7.3534111  0.028598067    8.4914019 
     140    96.038391   0.28552054   -1428.3804    146.80647    111.21462    146.68564    182.51915  0.025121842    7.3534146  0.028593173    8.4914068 
     150    73.761484   0.21929166   -1428.3784     112.7351     112.4449    128.60162    97.158759  0.025116969    7.3534195  0.028586423    8.4914136 
     160    88.095245    0.2619057   -1428.4854    134.64905    80.318276    127.51944    196.10942  0.025110881    7.3534256   0.02857805    8.4914219 
     170    81.537649   0.24241007   -1428.5057    124.61467    130.05245    162.40499    81.386564  0.025103722    7.3534327  0.028568307    8.4914317 
     180    95.240761    0.2831492    -1428.579    145.56391    137.15419    134.04467    165.49288  0.025095427     7.353441  0.028557199    8.4914428 
     190    69.697261   0.20720879   -1428.5471    106.51587     96.83689    162.09082    60.619893  0.025086136    7.3534503  0.028544964     8.491455 
     200    66.363423   0.19729735   -1428.5746    101.43428    87.752613     100.6731    115.87712  0.025075973    7.3534605  0.028531464    8.4914685 
     210    55.575682   0.16522558   -1428.5799    84.946476    73.899522    74.977265    105.96264  0.025064991    7.3534714  0.028516869    8.4914831 
     220    60.079464   0.17861525   -1428.6364    91.823627    97.221338    90.345931    87.903612  0.025053293    7.3534831  0.028501318    8.4914987 
     230     62.25552   0.18508462   -1428.6739    95.149622    108.57609    98.487538    78.385242  0.025040906    7.3534955  0.028484821    8.4915152 
     240    48.195352   0.14328398   -1428.6596    73.652463    76.965846    75.592993    68.398549  0.025027867    7.3535086  0.028467483    8.4915325 
     250    58.095299   0.17271635   -1428.7112    88.786134    92.468677    96.234895    77.654829  0.025014252    7.3535222   0.02844953    8.4915505 
     260    43.526191   0.12940264   -1428.7048    66.511063    83.671905    79.875168    35.986117  0.025000047    7.3535364  0.028430931    8.4915691 
     270    45.242302   0.13450461   -1428.7301    69.139655     69.44213    63.765219    74.211617  0.024985352    7.3535511   0.02841178    8.4915882 
     280    27.337634   0.08127433   -1428.6953     41.77822    37.984135    48.011826    39.338698  0.024970244    7.3535662  0.028392138    8.4916079 
     290    27.012507  0.080307733   -1428.7188    41.275904    29.547236    46.429119    47.851356   0.02495481    7.3535816  0.028371995     8.491628 
     300    26.214707  0.077935887   -1428.7277    40.059707     27.73992    39.819254    52.619948   0.02493906    7.3535974  0.028351414    8.4916486 
     310    23.732981  0.070557757   -1428.7317    36.265032    30.022636    41.229138    37.543321  0.024923013    7.3536134  0.028330487    8.4916695 
     320    25.515325  0.075856635    -1428.753    38.987101    26.900135    44.820356    45.240813  0.024906707    7.3536297  0.028309195    8.4916908 
     330    19.190858    0.0570541    -1428.737    29.321802    28.471626    34.298353    25.195428  0.024890156    7.3536463  0.028287534    8.4917125 
     340    27.971478  0.083158738   -1428.7674    42.739083    38.251014    50.958147    39.008089  0.024873354    7.3536631  0.028265574    8.4917344 
     350    19.364777  0.057571159   -1428.7497    29.586583    33.632925    34.663986    20.462838  0.024856314    7.3536801  0.028243246    8.4917568 
     360     17.84994  0.053067574   -1428.7505    27.271881    31.146313    23.086179    27.583151   0.02483904    7.3536974   0.02822061    8.4917794 
     370    18.592851  0.055276237   -1428.7609    28.405627    39.330422    20.081133    25.805325  0.024821531    7.3537149  0.028197731    8.4918023 
     380    18.015349  0.053559333   -1428.7653    27.522521    23.152655     37.47923    21.935678  0.024803782    7.3537327   0.02817461    8.4918254 
     390    17.177909  0.051069639   -1428.7656    26.242918    26.068216    29.427319    23.233218  0.024785853    7.3537506  0.028151204    8.4918488 
     400    15.361455   0.04566935   -1428.7677    23.464241     29.49445    27.750602     13.14767  0.024767746    7.3537687  0.028127549    8.4918725 
     410    16.691037  0.049622174   -1428.7735    25.497413    24.013527    26.820133    25.658579  0.024749434     7.353787  0.028103649    8.4918964 
     420    12.766452  0.037954448   -1428.7658    19.499639    23.387576    22.414262    12.697078  0.024730949    7.3538055  0.028079523    8.4919205 
     430    16.526828  0.049133983    -1428.772    25.244487    29.173226    21.745448    24.814787   0.02471229    7.3538242  0.028055188    8.4919448 
     440    11.878792  0.035315451   -1428.7637    18.141746    15.981956    26.388498    12.054784  0.024693405     7.353843  0.028030659    8.4919693 
     450    11.652905  0.034643893   -1428.7609     17.79524    19.152415    20.481603    13.751701  0.024674325    7.3538621  0.028005922    8.4919941 
     460    16.486913  0.049015317   -1428.7807    25.181836    32.762004    29.049691    13.733812  0.024655074    7.3538814  0.027980979     8.492019 
     470    13.009606  0.038677342   -1428.7754     19.86827    28.889745    22.652249    8.0628153  0.024635626    7.3539008  0.027955776    8.4920442 
     480    12.104606  0.035986791   -1428.7652    18.487756     19.13395    20.018039     16.31128  0.024615963    7.3539205  0.027930357    8.4920696 
     490    15.184778  0.045144093   -1428.7739    23.189136    25.516578    34.350633    9.7001955  0.024596117    7.3539403  0.027904728    8.4920953 
     500    15.167176  0.045091761   -1428.7741    23.161942    21.141763    35.401168    12.942896  0.024576093    7.3539603  0.027878804    8.4921212 
     510      13.7072  0.040751277   -1428.7745    20.930902    23.184679    28.200548     11.40748  0.024555917    7.3539805  0.027852597    8.4921474 
     520    13.449405  0.039984857   -1428.7733    20.537232    29.235051    16.521748    15.854898  0.024535584    7.3540009  0.027826138    8.4921739 
     530    12.580864  0.037402698   -1428.7733    19.208786    21.966733    19.739238    15.920388  0.024515087    7.3540214  0.027799472    8.4922005 
     540    12.989183  0.038616626   -1428.7768    19.831277    20.920817    23.770312    14.802702  0.024494431     7.354042  0.027772625    8.4922274 
     550    14.438203  0.042924537   -1428.7777    22.045898    26.823517     24.06641    15.247769  0.024473598    7.3540628  0.027745592    8.4922544 
     560    10.145886  0.030163551    -1428.768    15.484098    16.613038     13.57914    16.260116  0.024452588    7.3540839  0.027718365    8.4922816 
     570    12.034128  0.035777263   -1428.7801    18.371202    12.643416    24.266868    18.203323  0.024431445     7.354105   0.02769097     8.492309 
     580    13.263218  0.039431327   -1428.7867    20.248424    20.337358    27.356709    13.051204  0.024410183    7.3541263  0.027663376    8.4923366 
     590    10.049548  0.029877137   -1428.7809    15.336854    13.988096    21.685493    10.336974  0.024388795    7.3541476  0.027635586    8.4923644 
     600    9.2866564  0.027609075   -1428.7756    14.170323    11.178909    18.390703    12.941359  0.024367287    7.3541692  0.027607617    8.4923924 
     610    8.1548678  0.024244286    -1428.773    12.441702    14.515262    10.665818    12.144026  0.024345655    7.3541908  0.027579462    8.4924205 
     611    8.1990732  0.024375708   -1428.7734    12.509303    14.780116     10.81345    11.934343  0.024343485     7.354193  0.027576637    8.4924234 
Loop time of 181.706 on 1 procs for 500 steps with 24 atoms

Performance: 0.238 ns/day, 100.948 hours/ns, 2.752 timesteps/s
126.2% CPU use with 1 MPI tasks x no OpenMP threads

MPI task timing breakdown:
Section |  min time  |  avg time  |  max time  |%varavg| %total
---------------------------------------------------------------
Pair    | 0.0005709  | 0.0005709  | 0.0005709  |   0.0 |  0.00
Bond    | 4.0844e-05 | 4.0844e-05 | 4.0844e-05 |   0.0 |  0.00
Neigh   | 0          | 0          | 0          |   0.0 |  0.00
Comm    | 0.00073572 | 0.00073572 | 0.00073572 |   0.0 |  0.00
Output  | 0.043817   | 0.043817   | 0.043817   |   0.0 |  0.02
Modify  | 181.66     | 181.66     | 181.66     |   0.0 | 99.97
Other   |            | 0.0009375  |            |       |  0.00

Nlocal:        24.0000 ave          24 max          24 min
Histogram: 1 0 0 0 0 0 0 0 0 0
Nghost:        30.0000 ave          30 max          30 min
Histogram: 1 0 0 0 0 0 0 0 0 0
Neighs:        36.0000 ave          36 max          36 min
Histogram: 1 0 0 0 0 0 0 0 0 0

Total # of neighbors = 36
Ave neighs/atom = 1.5000000
Ave special neighs/atom = 0.0000000
Neighbor list builds = 0
Dangerous builds = 0
Total wall time: 0:03:59
