LAMMPS Description
 
        84  atoms
 
          14  atom types
 
 36.840194 64.211560 xlo xhi
 41.013691 68.385058 ylo yhi
 29.768095 57.139462 zlo zhi
 
Masses
 
  1 12.0110
  2 12.0110
  3 15.9990
  4  1.0080
  5 14.0070
  6 12.0110
  7 12.0110
  8 12.0110
  9 15.9990
 10  1.0080
 11  1.0080
 12 32.0660
 13 16.0000
 14  1.0100
 
Atoms
 
      1      1   1   0.510  43.99993  58.52678  36.78550   0   0   0
      2      1   2  -0.270  45.10395  58.23499  35.86693   0   0   0
      3      1   3  -0.510  43.81519  59.54928  37.43995   0   0   0
      4      1   4   0.090  45.71714  57.34797  36.13434   0   0   0
      5      1   4   0.090  45.72261  59.13657  35.67007   0   0   0
      6      1   4   0.090  44.66624  58.09539  34.85538   0   0   0
      7      1   5  -0.470  43.28193  57.47427  36.91953   0   0   0
      8      1   6   0.070  42.07157  57.45486  37.62418   0   0   0
      9      1   1   0.510  42.19985  57.57789  39.12163   0   0   0
     10      1   3  -0.510  41.88641  58.62251  39.70398   0   0   0
     11      1   7  -0.180  41.25052  56.15304  37.41811   0   0   0
     12      1   8   0.000  40.88511  55.94638  35.97460   0   0   0
     13      1   8  -0.115  41.48305  54.96372  35.11223   0   0   0
     14      1   8  -0.115  39.74003  56.60996  35.46443   0   0   0
     15      1   8  -0.115  41.02111  54.75715  33.80764   0   0   0
     16      1   8  -0.115  39.26180  56.39194  34.12024   0   0   0
     17      1   8   0.110  39.92330  55.46092  33.27135   0   0   0
     18      1   9  -0.540  39.48164  55.22919  31.91865   0   0   0
     19      1  10   0.310  43.60633  56.61693  36.52744   0   0   0
     20      1   4   0.090  41.49619  58.31145  37.30543   0   0   0
     21      1   4   0.090  41.88498  55.29476  37.72657   0   0   0
     22      1   4   0.090  40.30899  56.19690  38.00627   0   0   0
     23      1  11   0.115  42.31528  54.36176  35.44606   0   0   0
     24      1  11   0.115  39.26330  57.31216  36.13230   0   0   0
     25      1  11   0.115  41.62695  54.10606  33.19490   0   0   0
     26      1  11   0.115  38.42147  56.98236  33.78612   0   0   0
     27      1  10   0.430  38.78233  55.86217  31.74004   0   0   0
     28      1   5  -0.470  42.79933  56.56370  39.79000   0   0   0
     29      1   7  -0.020  42.96709  56.75379  41.28116   0   0   0
     30      1   1   0.510  43.83019  55.68988  41.92255   0   0   0
     31      1   3  -0.510  44.98521  55.93104  42.21713   0   0   0
     32      1  10   0.310  43.13466  55.75696  39.30966   0   0   0
     33      1   4   0.090  42.04692  56.86721  41.83507   0   0   0
     34      1   4   0.090  43.52938  57.66324  41.43329   0   0   0
     35      1   5  -0.470  43.26792  54.43342  42.07043   0   0   0
     36      1   7  -0.020  43.92411  53.28930  42.63327   0   0   0
     37      1   1   0.510  43.51012  53.02289  44.10510   0   0   0
     38      1   3  -0.510  42.35086  53.07863  44.50806   0   0   0
     39      1  10   0.310  42.28859  54.34993  41.90323   0   0   0
     40      1   4   0.090  44.98464  53.47473  42.54797   0   0   0
     41      1   4   0.090  43.49715  52.54787  41.97419   0   0   0
     42      1   5  -0.470  44.51925  52.64535  44.88133   0   0   0
     43      1   6   0.070  44.47588  52.35054  46.24397   0   0   0
     44      1   1   0.510  45.40218  53.34579  46.94730   0   0   0
     45      1   3  -0.510  45.23520  54.55893  46.92038   0   0   0
     46      1   7  -0.180  44.77960  50.82831  46.50232   0   0   0
     47      1   8   0.000  43.72184  49.84551  45.98093   0   0   0
     48      1   8  -0.115  44.14810  49.00477  44.97195   0   0   0
     49      1   8  -0.115  42.43499  49.66652  46.53541   0   0   0
     50      1   8  -0.115  43.26154  48.00434  44.46769   0   0   0
     51      1   8  -0.115  41.54732  48.79670  45.95416   0   0   0
     52      1   8  -0.115  41.98220  47.90746  44.95574   0   0   0
     53      1  10   0.310  45.39510  52.50937  44.42482   0   0   0
     54      1   4   0.090  43.51312  52.58974  46.67092   0   0   0
     55      1   4   0.090  44.89709  50.54313  47.56965   0   0   0
     56      1   4   0.090  45.72096  50.49337  46.01654   0   0   0
     57      1  11   0.115  45.13573  49.07933  44.54134   0   0   0
     58      1  11   0.115  42.07869  50.34816  47.29358   0   0   0
     59      1  11   0.115  43.47793  47.29281  43.68456   0   0   0
     60      1  11   0.115  40.52625  48.76134  46.30425   0   0   0
     61      1  11   0.115  41.35446  47.13287  44.54059   0   0   0
     62      1   5  -0.470  46.41448  52.86278  47.68291   0   0   0
     63      1   6   0.070  47.25136  53.68184  48.51163   0   0   0
     64      1   1   0.510  48.33905  54.40097  47.73886   0   0   0
     65      1   3  -0.510  49.27132  53.85220  47.16549   0   0   0
     66      1   7  -0.180  47.88329  52.75681  49.60227   0   0   0
     67      1   7  -0.140  48.82515  53.51102  50.61578   0   0   0
     68      1  12  -0.090  48.12492  55.00373  51.43039   0   0   0
     69      1   2  -0.220  47.70783  54.12980  53.04072   0   0   0
     70      1  10   0.310  46.67199  51.90088  47.73231   0   0   0
     71      1   4   0.090  46.64593  54.43552  48.99310   0   0   0
     72      1   4   0.090  48.41361  51.90817  49.11968   0   0   0
     73      1   4   0.090  47.08748  52.35196  50.26341   0   0   0
     74      1   4   0.090  49.16067  52.81305  51.41238   0   0   0
     75      1   4   0.090  49.73705  53.67062  50.00155   0   0   0
     76      1   4   0.090  47.18593  54.84215  53.71488   0   0   0
     77      1   4   0.090  48.69939  53.91624  53.49408   0   0   0
     78      1   4   0.090  47.19749  53.18294  52.76264   0   0   0
     79      1   5  -0.470  48.34472  55.71775  47.80498   0   0   0
     80      1   2  -0.110  49.37792  56.51754  47.29492   0   0   0
     81      1  10   0.310  47.51777  56.11617  48.19410   0   0   0
     82      1   4   0.090  50.41495  56.13038  47.38980   0   0   0
     83      1   4   0.090  49.23515  57.51193  47.76940   0   0   0
     84      1   4   0.090  49.28612  56.52094  46.18773   0   0   0